/store/Terry_project/NiAlO_EDIP_fitting_DFT/DATA/NiO-Slab/NiO_Slab_iter_last_lmp.data (written by ASE) 

250 	 atoms 
2  atom types
0.0             10.54150009  xlo xhi
0.0      9.1292068700000009  ylo yhi
0.0             28.54150009  zlo zhi
    -5.2707500399999994                       0                       0  xy xz yz


Atoms 

     1   1                       0                       0      25.725601114005617
     2   1                       0                       0     0.58162439713403802
     3   1                       0                       0      4.0212304996551582
     4   1                       0                       0      7.2875999715700113
     5   1                       0                       0       10.51066428164331
     6   1      1.0541500100000001      1.8258413740000004      25.725601114005617
     7   1      1.0541500100000001      1.8258413740000004     0.58162439713403802
     8   1      1.0541500100000001      1.8258413740000004      4.0212304996551582
     9   1      1.0541500100000001      1.8258413740000004      7.2875999715700113
    10   1      1.0541500100000001      1.8258413740000004       10.51066428164331
    11   1      2.1083000727075007      3.6516828392920693      25.725601114005617
    12   1      2.1083000727075007      3.6516828392920693     0.58162439713403802
    13   1      2.1083000727075007      3.6516828392920693      4.0212304996551582
    14   1      2.1083000727075007      3.6516828392920693      7.2875999715700113
    15   1      2.1083000727075007      3.6516828392920693       10.51066428164331
    16   1      3.1624501354150008      5.4775243045841373      25.725601114005617
    17   1      3.1624501354150008      5.4775243045841373     0.58162439713403802
    18   1      3.1624501354150008      5.4775243045841373      4.0212304996551582
    19   1      3.1624501354150008      5.4775243045841373      7.2875999715700113
    20   1      3.1624501354150008      5.4775243045841373       10.51066428164331
    21   1      4.2166000927075009      7.3033655872920695      25.725601114005617
    22   1      4.2166000927075009      7.3033655872920695     0.58162439713403802
    23   1      4.2166000927075009      7.3033655872920695      4.0212304996551582
    24   1      4.2166000927075009      7.3033655872920695      7.2875999715700113
    25   1      4.2166000927075009      7.3033655872920695       10.51066428164331
    26   1             2.108300018                       0      25.725601114005617
    27   1             2.108300018                       0     0.58162439713403802
    28   1             2.108300018                       0      4.0212304996551582
    29   1             2.108300018                       0      7.2875999715700113
    30   1             2.108300018                       0       10.51066428164331
    31   1      3.1624500280000007      1.8258413740000004      25.725601114005617
    32   1      3.1624500280000007      1.8258413740000004     0.58162439713403802
    33   1      3.1624500280000007      1.8258413740000004      4.0212304996551582
    34   1      3.1624500280000007      1.8258413740000004      7.2875999715700113
    35   1      3.1624500280000007      1.8258413740000004       10.51066428164331
    36   1      4.2166000907075007      3.6516828392920693      25.725601114005617
    37   1      4.2166000907075007      3.6516828392920693     0.58162439713403802
    38   1      4.2166000907075007      3.6516828392920693      4.0212304996551582
    39   1      4.2166000907075007      3.6516828392920693      7.2875999715700113
    40   1      4.2166000907075007      3.6516828392920693       10.51066428164331
    41   1      5.2707501534150012      5.4775243045841373      25.725601114005617
    42   1      5.2707501534150012      5.4775243045841373     0.58162439713403802
    43   1      5.2707501534150012      5.4775243045841373      4.0212304996551582
    44   1      5.2707501534150012      5.4775243045841373      7.2875999715700113
    45   1      5.2707501534150012      5.4775243045841373       10.51066428164331
    46   1      6.3249001107075014      7.3033655872920695      25.725601114005617
    47   1      6.3249001107075014      7.3033655872920695     0.58162439713403802
    48   1      6.3249001107075014      7.3033655872920695      4.0212304996551582
    49   1      6.3249001107075014      7.3033655872920695      7.2875999715700113
    50   1      6.3249001107075014      7.3033655872920695       10.51066428164331
    51   1      4.2166001414150012                       0      25.725601114005617
    52   1      4.2166001414150012                       0     0.58162439713403802
    53   1      4.2166001414150012                       0      4.0212304996551582
    54   1      4.2166001414150012                       0      7.2875999715700113
    55   1      4.2166001414150012                       0       10.51066428164331
    56   1       5.270750151415001      1.8258413740000004      25.725601114005617
    57   1       5.270750151415001      1.8258413740000004     0.58162439713403802
    58   1       5.270750151415001      1.8258413740000004      4.0212304996551582
    59   1       5.270750151415001      1.8258413740000004      7.2875999715700113
    60   1       5.270750151415001      1.8258413740000004       10.51066428164331
    61   1      6.3249002141225024      3.6516828392920693      25.725601114005617
    62   1      6.3249002141225024      3.6516828392920693     0.58162439713403802
    63   1      6.3249002141225024      3.6516828392920693      4.0212304996551582
    64   1      6.3249002141225024      3.6516828392920693      7.2875999715700113
    65   1      6.3249002141225024      3.6516828392920693       10.51066428164331
    66   1      7.3790502768300019      5.4775243045841373      25.725601114005617
    67   1      7.3790502768300019      5.4775243045841373     0.58162439713403802
    68   1      7.3790502768300019      5.4775243045841373      4.0212304996551582
    69   1      7.3790502768300019      5.4775243045841373      7.2875999715700113
    70   1      7.3790502768300019      5.4775243045841373       10.51066428164331
    71   1      8.4332002341225021      7.3033655872920695      25.725601114005617
    72   1      8.4332002341225021      7.3033655872920695     0.58162439713403802
    73   1      8.4332002341225021      7.3033655872920695      4.0212304996551582
    74   1      8.4332002341225021      7.3033655872920695      7.2875999715700113
    75   1      8.4332002341225021      7.3033655872920695       10.51066428164331
    76   1       6.324900264830001                       0      25.725601114005617
    77   1       6.324900264830001                       0     0.58162439713403802
    78   1       6.324900264830001                       0      4.0212304996551582
    79   1       6.324900264830001                       0      7.2875999715700113
    80   1       6.324900264830001                       0       10.51066428164331
    81   1      7.3790502748300009      1.8258413740000004      25.725601114005617
    82   1      7.3790502748300009      1.8258413740000004     0.58162439713403802
    83   1      7.3790502748300009      1.8258413740000004      4.0212304996551582
    84   1      7.3790502748300009      1.8258413740000004      7.2875999715700113
    85   1      7.3790502748300009      1.8258413740000004       10.51066428164331
    86   1      8.4332003375375013      3.6516828392920693      25.725601114005617
    87   1      8.4332003375375013      3.6516828392920693     0.58162439713403802
    88   1      8.4332003375375013      3.6516828392920693      4.0212304996551582
    89   1      8.4332003375375013      3.6516828392920693      7.2875999715700113
    90   1      8.4332003375375013      3.6516828392920693       10.51066428164331
    91   1      9.4873504002450026      5.4775243045841373      25.725601114005617
    92   1      9.4873504002450026      5.4775243045841373     0.58162439713403802
    93   1      9.4873504002450026      5.4775243045841373      4.0212304996551582
    94   1      9.4873504002450026      5.4775243045841373      7.2875999715700113
    95   1      9.4873504002450026      5.4775243045841373       10.51066428164331
    96   1      10.541500357537501      7.3033655872920695      25.725601114005617
    97   1      10.541500357537501      7.3033655872920695     0.58162439713403802
    98   1      10.541500357537501      7.3033655872920695      4.0212304996551582
    99   1      10.541500357537501      7.3033655872920695      7.2875999715700113
   100   1      10.541500357537501      7.3033655872920695       10.51066428164331
   101   1      8.4332001774150012                       0      25.725601114005617
   102   1      8.4332001774150012                       0     0.58162439713403802
   103   1      8.4332001774150012                       0      4.0212304996551582
   104   1      8.4332001774150012                       0      7.2875999715700113
   105   1      8.4332001774150012                       0       10.51066428164331
   106   1      9.4873501874150019      1.8258413740000004      25.725601114005617
   107   1      9.4873501874150019      1.8258413740000004     0.58162439713403802
   108   1      9.4873501874150019      1.8258413740000004      4.0212304996551582
   109   1      9.4873501874150019      1.8258413740000004      7.2875999715700113
   110   1      9.4873501874150019      1.8258413740000004       10.51066428164331
   111   1      10.541500250122501      3.6516828392920693      25.725601114005617
   112   1      10.541500250122501      3.6516828392920693     0.58162439713403802
   113   1      10.541500250122501      3.6516828392920693      4.0212304996551582
   114   1      10.541500250122501      3.6516828392920693      7.2875999715700113
   115   1      10.541500250122501      3.6516828392920693       10.51066428164331
   116   1      11.595650312830005      5.4775243045841373      25.725601114005617
   117   1      11.595650312830005      5.4775243045841373     0.58162439713403802
   118   1      11.595650312830005      5.4775243045841373      4.0212304996551582
   119   1      11.595650312830005      5.4775243045841373      7.2875999715700113
   120   1      11.595650312830005      5.4775243045841373       10.51066428164331
   121   1      12.649800270122499      7.3033655872920695      25.725601114005617
   122   1      12.649800270122499      7.3033655872920695     0.58162439713403802
   123   1      12.649800270122499      7.3033655872920695      4.0212304996551582
   124   1      12.649800270122499      7.3033655872920695      7.2875999715700113
   125   1      12.649800270122499      7.3033655872920695       10.51066428164331
   126   2      1.5812250140000004     0.91292068700000018      27.442906641300802
   127   2      1.5812250140000004     0.91292068700000018      2.3215282279554823
   128   2      1.5812250140000004     0.91292068700000018      5.6868859013124746
   129   2      1.5812250140000004     0.91292068700000018      8.8576162314057498
   130   2      1.5812250140000004     0.91292068700000018      12.084093248644807
   131   2      2.6353750767075006      2.7387621522920687      27.442906641300802
   132   2      2.6353750767075006      2.7387621522920687      2.3215282279554823
   133   2      2.6353750767075006      2.7387621522920687      5.6868859013124746
   134   2      2.6353750767075006      2.7387621522920687      8.8576162314057498
   135   2      2.6353750767075006      2.7387621522920687      12.084093248644807
   136   2      3.6895250339999999      4.5646034350000004      27.442906641300802
   137   2      3.6895250339999999      4.5646034350000004      2.3215282279554823
   138   2      3.6895250339999999      4.5646034350000004      5.6868859013124746
   139   2      3.6895250339999999      4.5646034350000004      8.8576162314057498
   140   2      3.6895250339999999      4.5646034350000004      12.084093248644807
   141   2         4.7436749912925      6.3904447177079318      27.442906641300802
   142   2         4.7436749912925      6.3904447177079318      2.3215282279554823
   143   2         4.7436749912925      6.3904447177079318      5.6868859013124746
   144   2         4.7436749912925      6.3904447177079318      8.8576162314057498
   145   2         4.7436749912925      6.3904447177079318      12.084093248644807
   146   2      5.7978249485849993      8.2162860004158631      27.442906641300802
   147   2      5.7978249485849993      8.2162860004158631      2.3215282279554823
   148   2      5.7978249485849993      8.2162860004158631      5.6868859013124746
   149   2      5.7978249485849993      8.2162860004158631      8.8576162314057498
   150   2      5.7978249485849993      8.2162860004158631      12.084093248644807
   151   2      3.6895251374150004     0.91292068700000018      27.442906641300802
   152   2      3.6895251374150004     0.91292068700000018      2.3215282279554823
   153   2      3.6895251374150004     0.91292068700000018      5.6868859013124746
   154   2      3.6895251374150004     0.91292068700000018      8.8576162314057498
   155   2      3.6895251374150004     0.91292068700000018      12.084093248644807
   156   2      4.7436752001225013      2.7387621522920687      27.442906641300802
   157   2      4.7436752001225013      2.7387621522920687      2.3215282279554823
   158   2      4.7436752001225013      2.7387621522920687      5.6868859013124746
   159   2      4.7436752001225013      2.7387621522920687      8.8576162314057498
   160   2      4.7436752001225013      2.7387621522920687      12.084093248644807
   161   2      5.7978251574150006      4.5646034350000004      27.442906641300802
   162   2      5.7978251574150006      4.5646034350000004      2.3215282279554823
   163   2      5.7978251574150006      4.5646034350000004      5.6868859013124746
   164   2      5.7978251574150006      4.5646034350000004      8.8576162314057498
   165   2      5.7978251574150006      4.5646034350000004      12.084093248644807
   166   2      6.8519751147074999      6.3904447177079318      27.442906641300802
   167   2      6.8519751147074999      6.3904447177079318      2.3215282279554823
   168   2      6.8519751147074999      6.3904447177079318      5.6868859013124746
   169   2      6.8519751147074999      6.3904447177079318      8.8576162314057498
   170   2      6.8519751147074999      6.3904447177079318      12.084093248644807
   171   2             7.906125072      8.2162860004158631      27.442906641300802
   172   2             7.906125072      8.2162860004158631      2.3215282279554823
   173   2             7.906125072      8.2162860004158631      5.6868859013124746
   174   2             7.906125072      8.2162860004158631      8.8576162314057498
   175   2             7.906125072      8.2162860004158631      12.084093248644807
   176   2      5.7978250500000001     0.91292068700000018      27.442906641300802
   177   2      5.7978250500000001     0.91292068700000018      2.3215282279554823
   178   2      5.7978250500000001     0.91292068700000018      5.6868859013124746
   179   2      5.7978250500000001     0.91292068700000018      8.8576162314057498
   180   2      5.7978250500000001     0.91292068700000018      12.084093248644807
   181   2      6.8519751127075006      2.7387621522920687      27.442906641300802
   182   2      6.8519751127075006      2.7387621522920687      2.3215282279554823
   183   2      6.8519751127075006      2.7387621522920687      5.6868859013124746
   184   2      6.8519751127075006      2.7387621522920687      8.8576162314057498
   185   2      6.8519751127075006      2.7387621522920687      12.084093248644807
   186   2      7.9061250699999999      4.5646034350000004      27.442906641300802
   187   2      7.9061250699999999      4.5646034350000004      2.3215282279554823
   188   2      7.9061250699999999      4.5646034350000004      5.6868859013124746
   189   2      7.9061250699999999      4.5646034350000004      8.8576162314057498
   190   2      7.9061250699999999      4.5646034350000004      12.084093248644807
   191   2         8.9602750272925      6.3904447177079318      27.442906641300802
   192   2         8.9602750272925      6.3904447177079318      2.3215282279554823
   193   2         8.9602750272925      6.3904447177079318      5.6868859013124746
   194   2         8.9602750272925      6.3904447177079318      8.8576162314057498
   195   2         8.9602750272925      6.3904447177079318      12.084093248644807
   196   2      10.014424984584998      8.2162860004158631      27.442906641300802
   197   2      10.014424984584998      8.2162860004158631      2.3215282279554823
   198   2      10.014424984584998      8.2162860004158631      5.6868859013124746
   199   2      10.014424984584998      8.2162860004158631      8.8576162314057498
   200   2      10.014424984584998      8.2162860004158631      12.084093248644807
   201   2      7.9061249625849994     0.91292068700000018      27.442906641300802
   202   2      7.9061249625849994     0.91292068700000018      2.3215282279554823
   203   2      7.9061249625849994     0.91292068700000018      5.6868859013124746
   204   2      7.9061249625849994     0.91292068700000018      8.8576162314057498
   205   2      7.9061249625849994     0.91292068700000018      12.084093248644807
   206   2      8.9602750252924999      2.7387621522920687      27.442906641300802
   207   2      8.9602750252924999      2.7387621522920687      2.3215282279554823
   208   2      8.9602750252924999      2.7387621522920687      5.6868859013124746
   209   2      8.9602750252924999      2.7387621522920687      8.8576162314057498
   210   2      8.9602750252924999      2.7387621522920687      12.084093248644807
   211   2      10.014424982584998      4.5646034350000004      27.442906641300802
   212   2      10.014424982584998      4.5646034350000004      2.3215282279554823
   213   2      10.014424982584998      4.5646034350000004      5.6868859013124746
   214   2      10.014424982584998      4.5646034350000004      8.8576162314057498
   215   2      10.014424982584998      4.5646034350000004      12.084093248644807
   216   2      11.068574939877498      6.3904447177079318      27.442906641300802
   217   2      11.068574939877498      6.3904447177079318      2.3215282279554823
   218   2      11.068574939877498      6.3904447177079318      5.6868859013124746
   219   2      11.068574939877498      6.3904447177079318      8.8576162314057498
   220   2      11.068574939877498      6.3904447177079318      12.084093248644807
   221   2      12.122724897169999      8.2162860004158631      27.442906641300802
   222   2      12.122724897169999      8.2162860004158631      2.3215282279554823
   223   2      12.122724897169999      8.2162860004158631      5.6868859013124746
   224   2      12.122724897169999      8.2162860004158631      8.8576162314057498
   225   2      12.122724897169999      8.2162860004158631      12.084093248644807
   226   2      10.014424875169999     0.91292068700000018      27.442906641300802
   227   2      10.014424875169999     0.91292068700000018      2.3215282279554823
   228   2      10.014424875169999     0.91292068700000018      5.6868859013124746
   229   2      10.014424875169999     0.91292068700000018      8.8576162314057498
   230   2      10.014424875169999     0.91292068700000018      12.084093248644807
   231   2      11.068574937877498      2.7387621522920687      27.442906641300802
   232   2      11.068574937877498      2.7387621522920687      2.3215282279554823
   233   2      11.068574937877498      2.7387621522920687      5.6868859013124746
   234   2      11.068574937877498      2.7387621522920687      8.8576162314057498
   235   2      11.068574937877498      2.7387621522920687      12.084093248644807
   236   2      12.122724895169998      4.5646034350000004      27.442906641300802
   237   2      12.122724895169998      4.5646034350000004      2.3215282279554823
   238   2      12.122724895169998      4.5646034350000004      5.6868859013124746
   239   2      12.122724895169998      4.5646034350000004      8.8576162314057498
   240   2      12.122724895169998      4.5646034350000004      12.084093248644807
   241   2      13.176874852462499      6.3904447177079318      27.442906641300802
   242   2      13.176874852462499      6.3904447177079318      2.3215282279554823
   243   2      13.176874852462499      6.3904447177079318      5.6868859013124746
   244   2      13.176874852462499      6.3904447177079318      8.8576162314057498
   245   2      13.176874852462499      6.3904447177079318      12.084093248644807
   246   2      14.231024809754999      8.2162860004158631      27.442906641300802
   247   2      14.231024809754999      8.2162860004158631      2.3215282279554823
   248   2      14.231024809754999      8.2162860004158631      5.6868859013124746
   249   2      14.231024809754999      8.2162860004158631      8.8576162314057498
   250   2      14.231024809754999      8.2162860004158631      12.084093248644807
