       N       E                     dE             d eps       ncg     rms          rms(c)
DAV:   1     0.176880930361E+05    0.17688E+05   -0.68045E+05  6296   0.128E+03
DAV:   2     0.174261215765E+04   -0.15945E+05   -0.14950E+05  6648   0.467E+02
DAV:   3    -0.112571559012E+04   -0.28683E+04   -0.27106E+04  8864   0.188E+02
DAV:   4    -0.141969162289E+04   -0.29398E+03   -0.26948E+03  9872   0.598E+01
DAV:   5    -0.143539489162E+04   -0.15703E+02   -0.14964E+02 10032   0.169E+01    0.162E+02
DAV:   6    -0.141622683612E+04    0.19168E+02   -0.25300E+03  8760   0.112E+02    0.207E+02
DAV:   7    -0.135766498166E+04    0.58562E+02   -0.48605E+02  6768   0.128E+02    0.208E+02
DAV:   8    -0.139907308125E+04   -0.41408E+02   -0.32948E+02  7848   0.873E+01    0.142E+02
DAV:   9    -0.161779416087E+04   -0.21872E+03   -0.28391E+02  8032   0.883E+01    0.244E+02
DAV:  10    -0.127023355688E+04    0.34756E+03   -0.19865E+02  7312   0.718E+01    0.890E+01
DAV:  11    -0.135104305324E+04   -0.80809E+02   -0.13623E+02  8104   0.664E+01    0.213E+02
DAV:  12    -0.123067592686E+04    0.12037E+03   -0.81287E+01  7440   0.427E+01    0.737E+01
DAV:  13    -0.120241052978E+04    0.28265E+02   -0.53423E+01  9280   0.216E+01    0.450E+01
DAV:  14    -0.120444649716E+04   -0.20360E+01   -0.10622E+01  9280   0.844E+00    0.478E+01
DAV:  15    -0.119715170900E+04    0.72948E+01   -0.32039E+00  7064   0.961E+00    0.235E+01
DAV:  16    -0.119680211714E+04    0.34959E+00   -0.16473E+00  8280   0.325E+00    0.261E+01
DAV:  17    -0.119418275426E+04    0.26194E+01   -0.16046E+00 10616   0.456E+00    0.119E+01
DAV:  18    -0.119369454715E+04    0.48821E+00   -0.91067E-01  9696   0.198E+00    0.995E+00
DAV:  19    -0.119373727586E+04   -0.42729E-01   -0.18326E-01  6864   0.136E+00    0.102E+01
DAV:  20    -0.119352414804E+04    0.21313E+00   -0.18655E-01 10432   0.136E+00    0.781E+00
DAV:  21    -0.119349780133E+04    0.26347E-01   -0.72321E-02  7976   0.579E-01    0.750E+00
DAV:  22    -0.119335519439E+04    0.14261E+00   -0.15763E-02 10024   0.807E-01    0.444E+00
DAV:  23    -0.119334537723E+04    0.98172E-02   -0.15523E-02  7152   0.317E-01    0.433E+00
DAV:  24    -0.119332493768E+04    0.20440E-01   -0.28654E-03  9512   0.184E-01    0.386E+00
DAV:  25    -0.119327307371E+04    0.51864E-01   -0.12620E-02 11168   0.500E-01    0.218E+00
DAV:  26    -0.119326117559E+04    0.11898E-01   -0.57559E-03  8176   0.197E-01    0.187E+00
DAV:  27    -0.119325147531E+04    0.97003E-02   -0.11825E-03 10952   0.196E-01    0.113E+00
DAV:  28    -0.119324657221E+04    0.49031E-02   -0.64190E-03 10336   0.369E-01    0.599E-01
DAV:  29    -0.119324603407E+04    0.53813E-03   -0.32378E-03  8352   0.191E-01    0.322E-01
DAV:  30    -0.119324685979E+04   -0.82572E-03   -0.91888E-04  8344   0.744E-02    0.397E-01
DAV:  31    -0.119324682510E+04    0.34691E-04   -0.39292E-04  7776   0.587E-02    0.272E-01
DAV:  32    -0.119324673387E+04    0.91227E-04   -0.28425E-04  9432   0.493E-02    0.152E-01
DAV:  33    -0.119324701141E+04   -0.27753E-03   -0.14351E-04  8904   0.232E-02    0.165E-01
DAV:  34    -0.119324702373E+04   -0.12318E-04   -0.28508E-05  9984   0.256E-02    0.916E-02
DAV:  35    -0.119324730854E+04   -0.28481E-03   -0.31748E-05  9528   0.267E-02    0.452E-02
DAV:  36    -0.119324749962E+04   -0.19108E-03   -0.27502E-05  9584   0.169E-02    0.589E-02
DAV:  37    -0.119324754578E+04   -0.46161E-04   -0.20474E-05  8992   0.168E-02    0.201E-02
DAV:  38    -0.119324757932E+04   -0.33536E-04   -0.91991E-06  7888   0.689E-03    0.113E-02
DAV:  39    -0.119324758653E+04   -0.72089E-05   -0.19150E-06  9488   0.256E-03    0.144E-02
DAV:  40    -0.119324758917E+04   -0.26441E-05   -0.44083E-07  5160   0.203E-03    0.139E-02
DAV:  41    -0.119324759349E+04   -0.43197E-05   -0.10163E-06  6496   0.210E-03    0.800E-03
DAV:  42    -0.119324759373E+04   -0.23562E-06   -0.24249E-07  4176   0.133E-03    0.895E-03
DAV:  43    -0.119324759458E+04   -0.85635E-06   -0.66295E-08  3528   0.102E-03    0.512E-03
DAV:  44    -0.119324759544E+04   -0.85426E-06   -0.57349E-08  3696   0.138E-03    0.927E-04
DAV:  45    -0.119324759587E+04   -0.43411E-06   -0.15295E-07  4092   0.518E-04    0.124E-03
DAV:  46    -0.119324759590E+04   -0.30501E-07   -0.30364E-08  3704   0.431E-04
   1 F= -.12402176E+04 E0= -.12400313E+04  d E =-.124022E+04
       N       E                     dE             d eps       ncg     rms          rms(c)
DAV:   1    -0.119400448245E+04   -0.75689E+00   -0.20136E+02  6216   0.188E+01    0.419E+00
DAV:   2    -0.120273899898E+04   -0.87345E+01   -0.54323E+00  8280   0.113E+01    0.517E+01
DAV:   3    -0.119542257925E+04    0.73164E+01   -0.33017E+00  7128   0.100E+01    0.110E+01
DAV:   4    -0.119482612749E+04    0.59645E+00   -0.10814E+00  8068   0.456E+00    0.129E+01
DAV:   5    -0.119434084517E+04    0.48528E+00   -0.49753E-01  7100   0.336E+00    0.339E+00
DAV:   6    -0.119428296051E+04    0.57885E-01   -0.17071E-01  8912   0.128E+00    0.144E+00
DAV:   7    -0.119427394124E+04    0.90193E-02   -0.40508E-02  8232   0.628E-01    0.789E-01
DAV:   8    -0.119427858939E+04   -0.46481E-02   -0.12387E-02 10272   0.221E-01    0.986E-01
DAV:   9    -0.119427681495E+04    0.17744E-02   -0.36848E-03  6808   0.197E-01    0.639E-01
DAV:  10    -0.119427575482E+04    0.10601E-02   -0.40815E-04  8376   0.113E-01    0.334E-01
DAV:  11    -0.119427612676E+04   -0.37193E-03   -0.31359E-04  8872   0.597E-02    0.179E-01
DAV:  12    -0.119427647868E+04   -0.35192E-03   -0.17804E-04  8168   0.392E-02    0.131E-01
DAV:  13    -0.119427659609E+04   -0.11742E-03   -0.15990E-04  6560   0.403E-02    0.484E-02
DAV:  14    -0.119427663779E+04   -0.41692E-04   -0.13365E-05  6704   0.133E-02    0.575E-02
DAV:  15    -0.119427663883E+04   -0.10481E-05   -0.72287E-06  8256   0.711E-03    0.475E-02
DAV:  16    -0.119427663587E+04    0.29671E-05   -0.38871E-06 10352   0.633E-03    0.262E-02
DAV:  17    -0.119427663744E+04   -0.15746E-05   -0.89047E-07  6640   0.337E-03    0.151E-02
DAV:  18    -0.119427663973E+04   -0.22876E-05   -0.24462E-07  4256   0.339E-03    0.243E-03
DAV:  19    -0.119427664089E+04   -0.11624E-05   -0.67516E-07  5944   0.153E-03    0.143E-03
DAV:  20    -0.119427664102E+04   -0.12747E-06   -0.68444E-08  3672   0.615E-04    0.145E-03
DAV:  21    -0.119427664119E+04   -0.17090E-06   -0.14403E-08  3592   0.297E-04    0.168E-03
DAV:  22    -0.119427664153E+04   -0.33807E-06   -0.18304E-08  3520   0.345E-04    0.766E-04
DAV:  23    -0.119427664167E+04   -0.14377E-06   -0.67087E-09  3680   0.176E-04    0.297E-04
DAV:  24    -0.119427664177E+04   -0.10093E-06   -0.51040E-09  3600   0.133E-04    0.250E-04
DAV:  25    -0.119427664185E+04   -0.81607E-07   -0.46350E-09  3600   0.124E-04
   2 F= -.12418886E+04 E0= -.12416989E+04  d E =-.167097E+01
       N       E                     dE             d eps       ncg     rms          rms(c)
DAV:   1    -0.119310075642E+04    0.11759E+01   -0.18135E+03  6216   0.569E+01    0.118E+01
DAV:   2    -0.125001907491E+04   -0.56918E+02   -0.54006E+01  8600   0.289E+01    0.139E+02
DAV:   3    -0.120119576472E+04    0.48823E+02   -0.17362E+01  7112   0.211E+01    0.220E+01
DAV:   4    -0.120118580810E+04    0.99566E-02   -0.63122E+00  7816   0.124E+01    0.354E+01
DAV:   5    -0.119730074976E+04    0.38851E+01   -0.44411E+00  7432   0.106E+01    0.118E+01
DAV:   6    -0.119657548259E+04    0.72527E+00   -0.15010E+00  8664   0.394E+00    0.695E+00
DAV:   7    -0.119642219427E+04    0.15329E+00   -0.38076E-01  7960   0.206E+00    0.299E+00
DAV:   8    -0.119644167260E+04   -0.19478E-01   -0.12885E-01 10616   0.979E-01    0.308E+00
DAV:   9    -0.119643690145E+04    0.47711E-02   -0.48831E-02  6840   0.657E-01    0.189E+00
DAV:  10    -0.119642693268E+04    0.99688E-02   -0.47722E-03  8464   0.407E-01    0.918E-01
DAV:  11    -0.119642903372E+04   -0.21010E-02   -0.41330E-03  7880   0.269E-01    0.464E-01
DAV:  12    -0.119642943440E+04   -0.40068E-03   -0.16737E-03  7984   0.853E-02    0.407E-01
DAV:  13    -0.119642996857E+04   -0.53418E-03   -0.52185E-04  6984   0.690E-02    0.369E-01
DAV:  14    -0.119642963563E+04    0.33294E-03   -0.34168E-04  7752   0.886E-02    0.152E-01
DAV:  15    -0.119642964205E+04   -0.64159E-05   -0.10062E-04  9512   0.213E-02    0.135E-01
DAV:  16    -0.119642963115E+04    0.10897E-04   -0.86189E-06  7536   0.924E-03    0.139E-01
DAV:  17    -0.119642969194E+04   -0.60790E-04   -0.61724E-06 11160   0.157E-02    0.133E-01
DAV:  18    -0.119642983649E+04   -0.14455E-03   -0.69972E-05 10408   0.336E-02    0.150E-01
DAV:  19    -0.119642978173E+04    0.54762E-04   -0.26930E-05  8232   0.167E-02    0.991E-02
DAV:  20    -0.119642979178E+04   -0.10054E-04   -0.30455E-06  7896   0.566E-03    0.866E-02
DAV:  21    -0.119642980478E+04   -0.12998E-04   -0.31696E-06  7920   0.665E-03    0.537E-02
DAV:  22    -0.119642982891E+04   -0.24132E-04   -0.70767E-06  8600   0.611E-03    0.417E-02
DAV:  23    -0.119642984256E+04   -0.13651E-04   -0.18007E-06  6664   0.300E-03    0.335E-02
DAV:  24    -0.119642984531E+04   -0.27433E-05   -0.22135E-07  4312   0.117E-03    0.292E-02
DAV:  25    -0.119642984964E+04   -0.43354E-05   -0.10572E-06  7968   0.677E-03    0.502E-03
DAV:  26    -0.119642985312E+04   -0.34806E-05   -0.12097E-06  7336   0.250E-03    0.507E-03
DAV:  27    -0.119642985368E+04   -0.55542E-06   -0.11346E-07  3768   0.823E-04    0.686E-03
DAV:  28    -0.119642985414E+04   -0.46054E-06   -0.88092E-08  3584   0.634E-04    0.556E-03
DAV:  29    -0.119642985443E+04   -0.28708E-06   -0.24243E-08  3608   0.595E-04    0.352E-03
DAV:  30    -0.119642985471E+04   -0.28324E-06   -0.35050E-08  3592   0.336E-04    0.304E-03
DAV:  31    -0.119642985481E+04   -0.99884E-07   -0.16745E-08  3696   0.340E-04
   3 F= -.12453231E+04 E0= -.12451082E+04  d E =-.510540E+01
       N       E                     dE             d eps       ncg     rms          rms(c)
DAV:   1    -0.119656048760E+04   -0.13063E+00   -0.12592E+02  6224   0.149E+01    0.300E+00
DAV:   2    -0.120037582115E+04   -0.38153E+01   -0.34267E+00  8336   0.742E+00    0.343E+01
DAV:   3    -0.119724358395E+04    0.31322E+01   -0.93516E-01  7016   0.679E+00    0.888E+00
DAV:   4    -0.119691845517E+04    0.32513E+00   -0.34944E-01  8020   0.321E+00    0.778E+00
DAV:   5    -0.119677894191E+04    0.13951E+00   -0.19713E-01  7520   0.214E+00    0.284E+00
DAV:   6    -0.119673738368E+04    0.41558E-01   -0.62113E-02  8592   0.839E-01    0.897E-01
DAV:   7    -0.119673643956E+04    0.94412E-03   -0.21191E-02  8464   0.451E-01    0.657E-01
DAV:   8    -0.119673607424E+04    0.36532E-03   -0.65456E-03  8576   0.196E-01    0.503E-01
DAV:   9    -0.119673597852E+04    0.95716E-04   -0.13549E-03  7216   0.129E-01    0.187E-01
DAV:  10    -0.119673627080E+04   -0.29227E-03   -0.27984E-04  9936   0.488E-02    0.149E-01
DAV:  11    -0.119673658876E+04   -0.31796E-03   -0.14446E-04  8008   0.355E-02    0.145E-01
DAV:  12    -0.119673653151E+04    0.57252E-04   -0.70814E-05  6672   0.311E-02    0.804E-02
DAV:  13    -0.119673655952E+04   -0.28011E-04   -0.84148E-06  9120   0.955E-03    0.494E-02
DAV:  14    -0.119673659303E+04   -0.33512E-04   -0.52476E-06  9120   0.567E-03    0.277E-02
DAV:  15    -0.119673660833E+04   -0.15297E-04   -0.16793E-06  7608   0.487E-03    0.112E-02
DAV:  16    -0.119673661327E+04   -0.49470E-05   -0.57787E-07  6136   0.215E-03    0.249E-03
DAV:  17    -0.119673661536E+04   -0.20885E-05   -0.35359E-07  4808   0.120E-03    0.118E-03
DAV:  18    -0.119673661627E+04   -0.91048E-06   -0.73980E-08  3616   0.570E-04    0.840E-04
DAV:  19    -0.119673661694E+04   -0.66904E-06   -0.32545E-08  3648   0.430E-04    0.166E-03
DAV:  20    -0.119673661751E+04   -0.57183E-06   -0.35632E-08  3672   0.428E-04    0.530E-04
DAV:  21    -0.119673661800E+04   -0.48219E-06   -0.26510E-08  3688   0.315E-04    0.913E-04
DAV:  22    -0.119673661826E+04   -0.26554E-06   -0.23661E-08  3608   0.286E-04    0.285E-04
DAV:  23    -0.119673661844E+04   -0.18266E-06   -0.20732E-08  3528   0.175E-04    0.443E-04
DAV:  24    -0.119673661846E+04   -0.16065E-07   -0.96113E-09  3672   0.177E-04
   4 F= -.12456078E+04 E0= -.12453839E+04  d E =-.539014E+01
       N       E                     dE             d eps       ncg     rms          rms(c)
DAV:   1    -0.119621577973E+04    0.52084E+00   -0.50377E+02  6216   0.298E+01    0.578E+00
DAV:   2    -0.120757972658E+04   -0.11364E+02   -0.13672E+01  8624   0.130E+01    0.581E+01
DAV:   3    -0.119855694077E+04    0.90228E+01   -0.30637E+00  6880   0.111E+01    0.157E+01
DAV:   4    -0.119772678752E+04    0.83015E+00   -0.12712E+00  7772   0.613E+00    0.149E+01
DAV:   5    -0.119717110508E+04    0.55568E+00   -0.16573E+00  7600   0.432E+00    0.569E+00
DAV:   6    -0.119700668361E+04    0.16442E+00   -0.24052E-01  8560   0.151E+00    0.242E+00
DAV:   7    -0.119700024033E+04    0.64433E-02   -0.85636E-02  8088   0.931E-01    0.151E+00
DAV:   8    -0.119699775622E+04    0.24841E-02   -0.29110E-02  8920   0.503E-01    0.970E-01
DAV:   9    -0.119699869963E+04   -0.94341E-03   -0.94664E-03  8296   0.307E-01    0.749E-01
DAV:  10    -0.119699814501E+04    0.55462E-03   -0.30175E-03  7824   0.164E-01    0.427E-01
DAV:  11    -0.119699824494E+04   -0.99929E-04   -0.71919E-04  7400   0.122E-01    0.221E-01
DAV:  12    -0.119699837249E+04   -0.12755E-03   -0.53546E-04  6872   0.633E-02    0.107E-01
DAV:  13    -0.119699841698E+04   -0.44493E-04   -0.12656E-04  8680   0.336E-02    0.621E-02
DAV:  14    -0.119699843588E+04   -0.18895E-04   -0.34976E-05  8864   0.959E-03    0.518E-02
DAV:  15    -0.119699845311E+04   -0.17233E-04   -0.63374E-06  7192   0.786E-03    0.221E-02
DAV:  16    -0.119699847370E+04   -0.20589E-04   -0.51379E-06 10728   0.557E-03    0.118E-02
DAV:  17    -0.119699848225E+04   -0.85547E-05   -0.16848E-06  6944   0.330E-03    0.131E-02
DAV:  18    -0.119699848743E+04   -0.51743E-05   -0.10696E-06  6752   0.234E-03    0.157E-02
DAV:  19    -0.119699848819E+04   -0.76753E-06   -0.70075E-07  6160   0.406E-03    0.263E-03
DAV:  20    -0.119699849286E+04   -0.46693E-05   -0.28000E-07  4488   0.128E-03    0.428E-03
DAV:  21    -0.119699849408E+04   -0.12207E-05   -0.91526E-08  3696   0.100E-03    0.207E-03
DAV:  22    -0.119699849891E+04   -0.48223E-05   -0.35646E-07  4592   0.688E-04    0.247E-03
DAV:  23    -0.119699849905E+04   -0.14401E-06   -0.50494E-08  3692   0.533E-04    0.149E-03
DAV:  24    -0.119699850024E+04   -0.11930E-05   -0.34575E-08  3656   0.522E-04    0.220E-03
DAV:  25    -0.119699850092E+04   -0.67498E-06   -0.69906E-08  3672   0.458E-04    0.173E-03
DAV:  26    -0.119699850097E+04   -0.52969E-07   -0.21195E-08  3696   0.327E-04
   5 F= -.12458226E+04 E0= -.12455994E+04  d E =-.560499E+01
       N       E                     dE             d eps       ncg     rms          rms(c)
DAV:   1    -0.119709034433E+04   -0.91843E-01   -0.10129E+02  6216   0.132E+01    0.171E+00
DAV:   2    -0.119741535524E+04   -0.32501E+00   -0.10514E+00  7592   0.262E+00    0.903E+00
DAV:   3    -0.119727578259E+04    0.13957E+00   -0.29794E-01  7648   0.283E+00    0.513E+00
DAV:   4    -0.119736644653E+04   -0.90664E-01   -0.40967E-01  7944   0.222E+00    0.723E+00
DAV:   5    -0.119721278866E+04    0.15366E+00   -0.12030E-01  7600   0.186E+00    0.145E+00
DAV:   6    -0.119719649514E+04    0.16294E-01   -0.16388E-02  7652   0.560E-01    0.152E+00
DAV:   7    -0.119719394324E+04    0.25519E-02   -0.83816E-03  7864   0.335E-01    0.690E-01
DAV:   8    -0.119719298906E+04    0.95418E-03   -0.30818E-03  7352   0.169E-01    0.556E-01
DAV:   9    -0.119719218428E+04    0.80477E-03   -0.85061E-04  8240   0.101E-01    0.134E-01
DAV:  10    -0.119719241599E+04   -0.23171E-03   -0.26419E-04  8964   0.308E-02    0.112E-01
DAV:  11    -0.119719249920E+04   -0.83204E-04   -0.46883E-05 10512   0.397E-02    0.944E-02
DAV:  12    -0.119719251205E+04   -0.12852E-04   -0.40468E-05  7912   0.273E-02    0.481E-02
DAV:  13    -0.119719253174E+04   -0.19691E-04   -0.56937E-06  6776   0.985E-03    0.252E-02
DAV:  14    -0.119719253636E+04   -0.46206E-05   -0.24389E-06  8224   0.284E-03    0.312E-02
DAV:  15    -0.119719253392E+04    0.24347E-05   -0.11847E-06  6856   0.720E-03    0.308E-03
DAV:  16    -0.119719253752E+04   -0.35963E-05   -0.67297E-07  6264   0.192E-03    0.297E-03
DAV:  17    -0.119719253786E+04   -0.33842E-06   -0.17530E-07  4088   0.983E-04    0.220E-03
DAV:  18    -0.119719253890E+04   -0.10367E-05   -0.72137E-08  3864   0.799E-04    0.193E-03
DAV:  19    -0.119719253933E+04   -0.43632E-06   -0.51665E-08  3672   0.469E-04    0.539E-04
DAV:  20    -0.119719253976E+04   -0.42503E-06   -0.36668E-08  3608   0.307E-04    0.466E-04
DAV:  21    -0.119719254018E+04   -0.42620E-06   -0.41955E-08  3744   0.311E-04    0.961E-04
DAV:  22    -0.119719254033E+04   -0.14936E-06   -0.18769E-08  3664   0.299E-04    0.139E-03
DAV:  23    -0.119719254038E+04   -0.48778E-07   -0.15186E-08  3648   0.254E-04
   6 F= -.12460616E+04 E0= -.12458399E+04  d E =-.239000E+00
       N       E                     dE             d eps       ncg     rms          rms(c)
DAV:   1    -0.119628394378E+04    0.90860E+00   -0.91075E+02  6216   0.397E+01    0.513E+00
DAV:   2    -0.119837384257E+04   -0.20899E+01   -0.13002E+01  8080   0.684E+00    0.176E+01
DAV:   3    -0.119844998147E+04   -0.76139E-01   -0.20338E+00  7888   0.746E+00    0.156E+01
DAV:   4    -0.119931221772E+04   -0.86224E+00   -0.30260E+00  8072   0.654E+00    0.222E+01
DAV:   5    -0.119775413158E+04    0.15581E+01   -0.15703E+00  7672   0.563E+00    0.370E+00
DAV:   6    -0.119759535367E+04    0.15878E+00   -0.15859E-01  7460   0.159E+00    0.397E+00
DAV:   7    -0.119760201769E+04   -0.66640E-02   -0.97940E-02  8136   0.112E+00    0.317E+00
DAV:   8    -0.119757986659E+04    0.22151E-01   -0.50033E-02  7520   0.765E-01    0.136E+00
DAV:   9    -0.119757335112E+04    0.65155E-02   -0.91646E-03  8024   0.333E-01    0.165E-01
DAV:  10    -0.119757402098E+04   -0.66986E-03   -0.27773E-03  8400   0.103E-01    0.110E-01
DAV:  11    -0.119757464445E+04   -0.62347E-03   -0.31329E-04  9656   0.809E-02    0.348E-01
DAV:  12    -0.119757430485E+04    0.33960E-03   -0.29900E-04  7456   0.798E-02    0.102E-01
DAV:  13    -0.119757441425E+04   -0.10941E-03   -0.81522E-05  7808   0.315E-02    0.393E-02
DAV:  14    -0.119757449733E+04   -0.83079E-04   -0.20648E-05  9300   0.113E-02    0.143E-02
DAV:  15    -0.119757453296E+04   -0.35629E-04   -0.92171E-06  6872   0.956E-03    0.235E-02
DAV:  16    -0.119757453944E+04   -0.64765E-05   -0.14262E-06  6928   0.427E-03    0.129E-02
DAV:  17    -0.119757455093E+04   -0.11489E-04   -0.14481E-06  7408   0.255E-03    0.615E-03
DAV:  18    -0.119757455853E+04   -0.76062E-05   -0.35871E-07  5120   0.132E-03    0.294E-03
DAV:  19    -0.119757456598E+04   -0.74438E-05   -0.26056E-07  4560   0.134E-03    0.340E-03
DAV:  20    -0.119757457310E+04   -0.71190E-05   -0.72624E-07  5936   0.968E-04    0.623E-03
DAV:  21    -0.119757457386E+04   -0.76031E-06   -0.84004E-08  3732   0.104E-03    0.323E-03
DAV:  22    -0.119757457563E+04   -0.17727E-05   -0.50424E-08  3744   0.428E-04    0.206E-03
DAV:  23    -0.119757457626E+04   -0.63190E-06   -0.13043E-08  3664   0.422E-04    0.740E-04
DAV:  24    -0.119757457686E+04   -0.60059E-06   -0.21551E-08  3576   0.315E-04    0.886E-04
DAV:  25    -0.119757457710E+04   -0.24179E-06   -0.18423E-08  3616   0.231E-04    0.742E-04
DAV:  26    -0.119757457716E+04   -0.58673E-07   -0.63211E-09  3640   0.109E-04
   7 F= -.12465723E+04 E0= -.12463582E+04  d E =-.749673E+00
       N       E                     dE             d eps       ncg     rms          rms(c)
DAV:   1    -0.118962982573E+04    0.79448E+01   -0.36592E+03  6216   0.812E+01    0.124E+01
DAV:   2    -0.119728764680E+04   -0.76578E+01   -0.79521E+01  8824   0.139E+01    0.968E+00
DAV:   3    -0.120645968816E+04   -0.91720E+01   -0.10529E+01  9144   0.163E+01    0.427E+01
DAV:   4    -0.119792738577E+04    0.85323E+01   -0.22241E+00  8416   0.120E+01    0.857E+00
DAV:   5    -0.119861097839E+04   -0.68359E+00   -0.23226E+00  8800   0.630E+00    0.218E+01
DAV:   6    -0.119748689997E+04    0.11241E+01   -0.71810E-01  8256   0.498E+00    0.920E+00
DAV:   7    -0.119727290583E+04    0.21399E+00   -0.42238E-01  8928   0.319E+00    0.514E+00
DAV:   8    -0.119721945592E+04    0.53450E-01   -0.14955E-01  7748   0.115E+00    0.266E+00
DAV:   9    -0.119718719835E+04    0.32258E-01   -0.33407E-02  7856   0.613E-01    0.101E+00
DAV:  10    -0.119718737023E+04   -0.17187E-03   -0.97130E-03  8804   0.193E-01    0.522E-01
DAV:  11    -0.119718749946E+04   -0.12923E-03   -0.13959E-03  8232   0.950E-02    0.265E-01
DAV:  12    -0.119718841012E+04   -0.91067E-03   -0.77614E-04  6968   0.835E-02    0.237E-01
DAV:  13    -0.119718844720E+04   -0.37073E-04   -0.20198E-04  9320   0.370E-02    0.224E-01
DAV:  14    -0.119718840714E+04    0.40058E-04   -0.65785E-05  7384   0.346E-02    0.112E-01
DAV:  15    -0.119718855290E+04   -0.14576E-03   -0.22104E-05 10752   0.158E-02    0.456E-02
DAV:  16    -0.119718873040E+04   -0.17749E-03   -0.13896E-05  9088   0.108E-02    0.156E-02
DAV:  17    -0.119718878338E+04   -0.52983E-04   -0.58785E-06  6872   0.606E-03    0.118E-02
DAV:  18    -0.119718882843E+04   -0.45046E-04   -0.14771E-06  7552   0.404E-03    0.982E-03
DAV:  19    -0.119718885554E+04   -0.27109E-04   -0.77937E-07  6504   0.189E-03    0.476E-03
DAV:  20    -0.119718887622E+04   -0.20684E-04   -0.54947E-07  5744   0.151E-03    0.964E-03
DAV:  21    -0.119718889106E+04   -0.14838E-04   -0.54394E-07  5624   0.264E-03    0.182E-03
DAV:  22    -0.119718889688E+04   -0.58224E-05   -0.29061E-07  4824   0.882E-04    0.194E-03
DAV:  23    -0.119718889791E+04   -0.10317E-05   -0.54215E-08  3688   0.504E-04    0.168E-03
DAV:  24    -0.119718889994E+04   -0.20266E-05   -0.34224E-08  3544   0.599E-04    0.648E-04
DAV:  25    -0.119718890043E+04   -0.49034E-06   -0.31170E-08  3696   0.378E-04    0.150E-03
DAV:  26    -0.119718890058E+04   -0.15029E-06   -0.19024E-08  3648   0.320E-04    0.881E-04
DAV:  27    -0.119718890067E+04   -0.90688E-07   -0.68346E-09  3640   0.163E-04
   8 F= -.12464066E+04 E0= -.12462152E+04  d E =-.583978E+00
       N       E                     dE             d eps       ncg     rms          rms(c)
DAV:   1    -0.119537864425E+04    0.18103E+01   -0.14342E+03  6216   0.500E+01    0.731E+00
DAV:   2    -0.120048229503E+04   -0.51037E+01   -0.23628E+01  7848   0.120E+01    0.280E+01
DAV:   3    -0.119956584686E+04    0.91645E+00   -0.58242E+00  7256   0.127E+01    0.225E+01
DAV:   4    -0.120044858976E+04   -0.88274E+00   -0.26770E+00  7740   0.866E+00    0.290E+01
DAV:   5    -0.119804833818E+04    0.24003E+01   -0.13034E+00  8212   0.658E+00    0.848E+00
DAV:   6    -0.119762690860E+04    0.42143E+00   -0.46139E-01  7624   0.257E+00    0.302E+00
DAV:   7    -0.119762260164E+04    0.43070E-02   -0.15423E-01  8824   0.816E-01    0.244E+00
DAV:   8    -0.119765579819E+04   -0.33197E-01   -0.39453E-02  8384   0.470E-01    0.292E+00
DAV:   9    -0.119763080679E+04    0.24991E-01   -0.29709E-02  7824   0.761E-01    0.112E+00
DAV:  10    -0.119763289335E+04   -0.20866E-02   -0.55723E-03  9328   0.207E-01    0.749E-01
DAV:  11    -0.119763286218E+04    0.31173E-04   -0.11104E-03  8720   0.739E-02    0.680E-01
DAV:  12    -0.119763212082E+04    0.74137E-03   -0.56200E-04  8392   0.126E-01    0.202E-01
DAV:  13    -0.119763212725E+04   -0.64317E-05   -0.29595E-04  8296   0.399E-02    0.137E-01
DAV:  14    -0.119763215633E+04   -0.29081E-04   -0.59467E-05  7464   0.163E-02    0.744E-02
DAV:  15    -0.119763220790E+04   -0.51573E-04   -0.13186E-05  9376   0.797E-03    0.456E-02
DAV:  16    -0.119763222474E+04   -0.16838E-04   -0.60847E-06  8624   0.114E-02    0.236E-02
DAV:  17    -0.119763223398E+04   -0.92410E-05   -0.30176E-06  8544   0.383E-03    0.144E-02
DAV:  18    -0.119763223809E+04   -0.41121E-05   -0.52341E-07  5360   0.188E-03    0.922E-03
DAV:  19    -0.119763224761E+04   -0.95182E-05   -0.35267E-07  4744   0.219E-03    0.734E-03
DAV:  20    -0.119763224986E+04   -0.22488E-05   -0.35116E-07  5024   0.172E-03    0.268E-03
DAV:  21    -0.119763225229E+04   -0.24270E-05   -0.99304E-08  3856   0.604E-04    0.193E-03
DAV:  22    -0.119763225655E+04   -0.42623E-05   -0.15338E-07  4208   0.712E-04    0.225E-03
DAV:  23    -0.119763225758E+04   -0.10270E-05   -0.78355E-08  3736   0.792E-04    0.148E-03
DAV:  24    -0.119763225767E+04   -0.91968E-07   -0.33643E-08  3656   0.297E-04
   9 F= -.12467185E+04 E0= -.12465123E+04  d E =-.895860E+00
       N       E                     dE             d eps       ncg     rms          rms(c)
DAV:   1    -0.119768685812E+04   -0.54601E-01   -0.11897E+02  6228   0.139E+01    0.180E+00
DAV:   2    -0.119802532846E+04   -0.33847E+00   -0.11749E+00  7848   0.284E+00    0.860E+00
DAV:   3    -0.119786806365E+04    0.15726E+00   -0.35706E-01  7584   0.304E+00    0.443E+00
DAV:   4    -0.119796238014E+04   -0.94316E-01   -0.46297E-01  7560   0.202E+00    0.743E+00
DAV:   5    -0.119782145018E+04    0.14093E+00   -0.28139E-01  7704   0.208E+00    0.306E+00
DAV:   6    -0.119780100669E+04    0.20443E-01   -0.20976E-02  7916   0.834E-01    0.151E+00
DAV:   7    -0.119779367414E+04    0.73325E-02   -0.12829E-02  7712   0.434E-01    0.774E-01
DAV:   8    -0.119779267594E+04    0.99821E-03   -0.46767E-03  8624   0.150E-01    0.423E-01
DAV:   9    -0.119779216520E+04    0.51074E-03   -0.69877E-04  8288   0.968E-02    0.213E-01
DAV:  10    -0.119779222986E+04   -0.64661E-04   -0.25855E-04  7784   0.693E-02    0.440E-02
DAV:  11    -0.119779235628E+04   -0.12642E-03   -0.10525E-04  8088   0.223E-02    0.180E-02
DAV:  12    -0.119779236450E+04   -0.82244E-05   -0.15128E-05  7332   0.104E-02    0.965E-03
DAV:  13    -0.119779236564E+04   -0.11404E-05   -0.30513E-06  9624   0.251E-03    0.957E-03
DAV:  14    -0.119779236609E+04   -0.44308E-06   -0.15890E-07  3812   0.170E-03    0.685E-03
DAV:  15    -0.119779236676E+04   -0.67125E-06   -0.14668E-07  3944   0.143E-03    0.483E-03
DAV:  16    -0.119779236693E+04   -0.16938E-06   -0.12122E-07  3864   0.101E-03    0.181E-03
DAV:  17    -0.119779236724E+04   -0.31781E-06   -0.70960E-08  3696   0.410E-04    0.110E-03
DAV:  18    -0.119779236742E+04   -0.17101E-06   -0.24577E-08  3648   0.285E-04    0.447E-04
DAV:  19    -0.119779236775E+04   -0.33644E-06   -0.43582E-08  3696   0.316E-04    0.757E-04
DAV:  20    -0.119779236786E+04   -0.11141E-06   -0.20752E-08  3664   0.233E-04    0.477E-04
DAV:  21    -0.119779236792E+04   -0.59372E-07   -0.93659E-09  3688   0.133E-04
  10 F= -.12469388E+04 E0= -.12467316E+04  d E =-.220287E+00
       N       E                     dE             d eps       ncg     rms          rms(c)
DAV:   1    -0.119653875838E+04    0.12536E+01   -0.10701E+03  6232   0.421E+01    0.580E+00
DAV:   2    -0.119966368272E+04   -0.31249E+01   -0.16415E+01  7548   0.882E+00    0.232E+01
DAV:   3    -0.119915684507E+04    0.50684E+00   -0.49951E+00  7840   0.100E+01    0.178E+01
DAV:   4    -0.119970475587E+04   -0.54791E+00   -0.27445E+00  7724   0.653E+00    0.209E+01
DAV:   5    -0.119849011430E+04    0.12146E+01   -0.68965E-01  7952   0.645E+00    0.104E+01
DAV:   6    -0.119813113426E+04    0.35898E+00   -0.47798E-01  7864   0.285E+00    0.368E+00
DAV:   7    -0.119809874113E+04    0.32393E-01   -0.13207E-01  7712   0.126E+00    0.305E+00
DAV:   8    -0.119808870195E+04    0.10039E-01   -0.40993E-02  8576   0.442E-01    0.228E+00
DAV:   9    -0.119807172634E+04    0.16976E-01   -0.10852E-02  8448   0.434E-01    0.635E-01
DAV:  10    -0.119807223069E+04   -0.50435E-03   -0.35366E-03 10176   0.163E-01    0.159E-01
DAV:  11    -0.119807305025E+04   -0.81956E-03   -0.61032E-04  9156   0.820E-02    0.216E-01
DAV:  12    -0.119807337234E+04   -0.32209E-03   -0.42163E-04  6956   0.630E-02    0.998E-02
DAV:  13    -0.119807334637E+04    0.25971E-04   -0.54191E-05  6928   0.293E-02    0.419E-02
DAV:  14    -0.119807340256E+04   -0.56191E-04   -0.19275E-05 10204   0.130E-02    0.299E-02
DAV:  15    -0.119807340637E+04   -0.38103E-05   -0.87164E-06  6656   0.829E-03    0.739E-03
DAV:  16    -0.119807341342E+04   -0.70434E-05   -0.11435E-06  7376   0.277E-03    0.322E-03
DAV:  17    -0.119807341760E+04   -0.41865E-05   -0.81927E-07  6400   0.150E-03    0.406E-03
DAV:  18    -0.119807342053E+04   -0.29242E-05   -0.28878E-07  4568   0.146E-03    0.149E-03
DAV:  19    -0.119807342218E+04   -0.16487E-05   -0.10580E-07  4072   0.594E-04    0.940E-04
DAV:  20    -0.119807342295E+04   -0.77626E-06   -0.45755E-08  3648   0.328E-04    0.919E-04
DAV:  21    -0.119807342492E+04   -0.19677E-05   -0.25335E-07  4600   0.551E-04    0.222E-03
DAV:  22    -0.119807342511E+04   -0.18976E-06   -0.43724E-08  3736   0.618E-04    0.602E-04
DAV:  23    -0.119807342543E+04   -0.31921E-06   -0.18472E-08  3640   0.205E-04    0.429E-04
DAV:  24    -0.119807342563E+04   -0.20245E-06   -0.11893E-08  3592   0.173E-04    0.432E-04
DAV:  25    -0.119807342574E+04   -0.10768E-06   -0.71330E-09  3616   0.139E-04    0.345E-04
DAV:  26    -0.119807342579E+04   -0.52969E-07   -0.35507E-09  3600   0.110E-04
  11 F= -.12473971E+04 E0= -.12471883E+04  d E =-.678624E+00
       N       E                     dE             d eps       ncg     rms          rms(c)
DAV:   1    -0.118790407336E+04    0.10169E+02   -0.43136E+03  6248   0.867E+01    0.166E+01
DAV:   2    -0.120397300970E+04   -0.16069E+02   -0.10303E+02  7512   0.209E+01    0.474E+01
DAV:   3    -0.121755001730E+04   -0.13577E+02   -0.26455E+01  8128   0.290E+01    0.776E+01
DAV:   4    -0.120299172387E+04    0.14558E+02   -0.96346E+00  8928   0.127E+01    0.298E+01
DAV:   5    -0.119844754584E+04    0.45442E+01   -0.34645E+00  8176   0.919E+00    0.109E+01
DAV:   6    -0.119809291405E+04    0.35463E+00   -0.17876E+00  8412   0.609E+00    0.124E+01
DAV:   7    -0.119782142474E+04    0.27149E+00   -0.55677E-01  8120   0.213E+00    0.725E+00
DAV:   8    -0.119767927764E+04    0.14215E+00   -0.16170E-01  9048   0.148E+00    0.282E+00
DAV:   9    -0.119773860416E+04   -0.59327E-01   -0.99922E-02  8180   0.641E-01    0.418E+00
DAV:  10    -0.119767803439E+04    0.60570E-01   -0.36869E-02  6592   0.818E-01    0.110E+00
DAV:  11    -0.119767475294E+04    0.32814E-02   -0.95084E-03  9088   0.277E-01    0.805E-01
DAV:  12    -0.119767418294E+04    0.57000E-03   -0.18174E-03  8632   0.115E-01    0.626E-01
DAV:  13    -0.119767313064E+04    0.10523E-02   -0.19812E-03  8276   0.120E-01    0.459E-01
DAV:  14    -0.119767240727E+04    0.72337E-03   -0.18564E-03  7524   0.119E-01    0.213E-01
DAV:  15    -0.119767234404E+04    0.63225E-04   -0.28821E-04  8392   0.354E-02    0.153E-01
DAV:  16    -0.119767243056E+04   -0.86515E-04   -0.77716E-05  9252   0.225E-02    0.986E-02
DAV:  17    -0.119767256116E+04   -0.13060E-03   -0.93671E-05  7992   0.323E-02    0.382E-02
DAV:  18    -0.119767263083E+04   -0.69664E-04   -0.23367E-05  8240   0.971E-03    0.139E-02
DAV:  19    -0.119767264495E+04   -0.14121E-04   -0.37288E-06  8956   0.366E-03    0.158E-02
DAV:  20    -0.119767266020E+04   -0.15250E-04   -0.16393E-06  8432   0.582E-03    0.957E-03
DAV:  21    -0.119767266518E+04   -0.49808E-05   -0.44335E-07  5696   0.329E-03    0.602E-03
DAV:  22    -0.119767267044E+04   -0.52656E-05   -0.57371E-07  6272   0.171E-03    0.208E-03
DAV:  23    -0.119767267579E+04   -0.53491E-05   -0.32410E-07  4960   0.130E-03    0.355E-03
DAV:  24    -0.119767267989E+04   -0.40951E-05   -0.29373E-07  4712   0.824E-04    0.188E-03
DAV:  25    -0.119767268050E+04   -0.60711E-06   -0.63584E-08  3712   0.431E-04    0.153E-03
DAV:  26    -0.119767268159E+04   -0.10933E-05   -0.41651E-08  3640   0.320E-04    0.880E-04
DAV:  27    -0.119767268201E+04   -0.42247E-06   -0.16732E-08  3648   0.278E-04    0.903E-04
DAV:  28    -0.119767268223E+04   -0.21339E-06   -0.10753E-08  3576   0.206E-04    0.459E-04
DAV:  29    -0.119767268230E+04   -0.77533E-07   -0.65347E-09  3608   0.163E-04
  12 F= -.12473376E+04 E0= -.12471323E+04  d E =-.619111E+00
       N       E                     dE             d eps       ncg     rms          rms(c)
DAV:   1    -0.119601700348E+04    0.16557E+01   -0.13304E+03  6232   0.470E+01    0.612E+00
DAV:   2    -0.119939826015E+04   -0.33813E+01   -0.22683E+01  8136   0.978E+00    0.201E+01
DAV:   3    -0.119845361604E+04    0.94464E+00   -0.34831E+00  7232   0.903E+00    0.105E+01
DAV:   4    -0.119860635775E+04   -0.15274E+00   -0.99343E-01  7304   0.475E+00    0.132E+01
DAV:   5    -0.119888674490E+04   -0.28039E+00   -0.18548E+00  8624   0.455E+00    0.162E+01
DAV:   6    -0.119814910158E+04    0.73764E+00   -0.60054E-01  7908   0.358E+00    0.354E+00
DAV:   7    -0.119813387538E+04    0.15226E-01   -0.12516E-01  7768   0.120E+00    0.485E+00
DAV:   8    -0.119806945033E+04    0.64425E-01   -0.45956E-02  7376   0.827E-01    0.196E+00
DAV:   9    -0.119806234795E+04    0.71024E-02   -0.14215E-02  9520   0.315E-01    0.120E+00
DAV:  10    -0.119806036446E+04    0.19835E-02   -0.30373E-03  9584   0.214E-01    0.514E-01
DAV:  11    -0.119806099038E+04   -0.62592E-03   -0.12767E-03  7832   0.111E-01    0.185E-01
DAV:  12    -0.119806129276E+04   -0.30237E-03   -0.26438E-04  7056   0.507E-02    0.172E-01
DAV:  13    -0.119806141419E+04   -0.12144E-03   -0.11421E-04  7104   0.321E-02    0.675E-02
DAV:  14    -0.119806140690E+04    0.72878E-05   -0.48632E-05  9832   0.141E-02    0.607E-02
DAV:  15    -0.119806142085E+04   -0.13943E-04   -0.15931E-05  7824   0.158E-02    0.370E-02
DAV:  16    -0.119806143108E+04   -0.10235E-04   -0.44904E-06  9416   0.495E-03    0.255E-02
DAV:  17    -0.119806143209E+04   -0.10041E-05   -0.20388E-06  7688   0.539E-03    0.136E-02
DAV:  18    -0.119806143453E+04   -0.24480E-05   -0.51211E-07  5536   0.206E-03    0.717E-03
DAV:  19    -0.119806143790E+04   -0.33646E-05   -0.20661E-07  4416   0.232E-03    0.529E-03
DAV:  20    -0.119806143946E+04   -0.15601E-05   -0.44357E-07  5192   0.118E-03    0.266E-03
DAV:  21    -0.119806144111E+04   -0.16467E-05   -0.14048E-07  4056   0.619E-04    0.232E-03
DAV:  22    -0.119806144153E+04   -0.42201E-06   -0.30790E-08  3712   0.468E-04    0.113E-03
DAV:  23    -0.119806144192E+04   -0.38964E-06   -0.38452E-08  3600   0.308E-04    0.835E-04
DAV:  24    -0.119806144227E+04   -0.35425E-06   -0.27365E-08  3592   0.271E-04    0.321E-04
DAV:  25    -0.119806144236E+04   -0.92201E-07   -0.11062E-08  3640   0.160E-04
  13 F= -.12475382E+04 E0= -.12473299E+04  d E =-.819726E+00
       N       E                     dE             d eps       ncg     rms          rms(c)
DAV:   1    -0.119802246783E+04    0.38974E-01   -0.12063E+02  6216   0.137E+01    0.194E+00
DAV:   2    -0.119860013351E+04   -0.57767E+00   -0.15226E+00  7304   0.335E+00    0.111E+01
DAV:   3    -0.119820144713E+04    0.39869E+00   -0.67681E-01  7440   0.374E+00    0.493E+00
DAV:   4    -0.119832795779E+04   -0.12651E+00   -0.21843E-01  8368   0.251E+00    0.759E+00
DAV:   5    -0.119813162734E+04    0.19633E+00   -0.73574E-02  7512   0.193E+00    0.125E+00
DAV:   6    -0.119814237989E+04   -0.10753E-01   -0.27760E-02  7972   0.712E-01    0.233E+00
DAV:   7    -0.119812960315E+04    0.12777E-01   -0.14488E-02  8472   0.617E-01    0.529E-01
DAV:   8    -0.119812969493E+04   -0.91775E-04   -0.67969E-03  9688   0.166E-01    0.268E-01
DAV:   9    -0.119812964527E+04    0.49655E-04   -0.91620E-04  8128   0.859E-02    0.151E-01
DAV:  10    -0.119812961889E+04    0.26385E-04   -0.78712E-05  8520   0.389E-02    0.530E-02
DAV:  11    -0.119812966075E+04   -0.41865E-04   -0.55507E-05  9396   0.185E-02    0.368E-02
DAV:  12    -0.119812965268E+04    0.80755E-05   -0.14387E-05  7152   0.108E-02    0.329E-02
DAV:  13    -0.119812965687E+04   -0.41918E-05   -0.27831E-06  7136   0.581E-03    0.158E-02
DAV:  14    -0.119812966810E+04   -0.11229E-04   -0.14020E-06  8064   0.242E-03    0.592E-03
DAV:  15    -0.119812967056E+04   -0.24664E-05   -0.53493E-07  5600   0.131E-03    0.509E-03
DAV:  16    -0.119812967151E+04   -0.95007E-06   -0.99531E-08  3640   0.123E-03    0.271E-03
DAV:  17    -0.119812967217E+04   -0.65716E-06   -0.54582E-08  3568   0.614E-04    0.977E-04
DAV:  18    -0.119812967262E+04   -0.44506E-06   -0.29759E-08  3608   0.460E-04    0.654E-04
DAV:  19    -0.119812967309E+04   -0.47137E-06   -0.23315E-08  3560   0.346E-04    0.660E-04
DAV:  20    -0.119812967355E+04   -0.46613E-06   -0.19947E-08  3616   0.239E-04    0.100E-03
DAV:  21    -0.119812967378E+04   -0.22375E-06   -0.14266E-08  3608   0.249E-04    0.633E-04
DAV:  22    -0.119812967389E+04   -0.11467E-06   -0.10848E-08  3560   0.190E-04    0.445E-04
DAV:  23    -0.119812967391E+04   -0.17462E-07   -0.87288E-09  3648   0.153E-04
  14 F= -.12476789E+04 E0= -.12474697E+04  d E =-.140723E+00
       N       E                     dE             d eps       ncg     rms          rms(c)
DAV:   1    -0.119661267379E+04    0.15170E+01   -0.10629E+03  6224   0.410E+01    0.632E+00
DAV:   2    -0.120334078341E+04   -0.67281E+01   -0.17216E+01  7032   0.115E+01    0.405E+01
DAV:   3    -0.119891320564E+04    0.44276E+01   -0.59053E+00  7296   0.124E+01    0.124E+01
DAV:   4    -0.119976091307E+04   -0.84771E+00   -0.20800E+00  8196   0.812E+00    0.209E+01
DAV:   5    -0.119817294196E+04    0.15880E+01   -0.96324E-01  7304   0.627E+00    0.500E+00
DAV:   6    -0.119812560395E+04    0.47338E-01   -0.38481E-01  7884   0.248E+00    0.520E+00
DAV:   7    -0.119808763536E+04    0.37969E-01   -0.13587E-01  7688   0.122E+00    0.233E+00
DAV:   8    -0.119808815074E+04   -0.51538E-03   -0.47369E-02  9600   0.636E-01    0.111E+00
DAV:   9    -0.119809208280E+04   -0.39321E-02   -0.13259E-02  7360   0.245E-01    0.101E+00
DAV:  10    -0.119808824909E+04    0.38337E-02   -0.11786E-03  7952   0.236E-01    0.177E-01
DAV:  11    -0.119808861146E+04   -0.36238E-03   -0.91583E-04  8808   0.830E-02    0.168E-01
DAV:  12    -0.119808867746E+04   -0.65995E-04   -0.20658E-04  8056   0.514E-02    0.175E-01
DAV:  13    -0.119808854589E+04    0.13157E-03   -0.15231E-04  7176   0.387E-02    0.992E-02
DAV:  14    -0.119808860428E+04   -0.58389E-04   -0.24095E-05  7616   0.198E-02    0.359E-02
DAV:  15    -0.119808867639E+04   -0.72117E-04   -0.13024E-05  8280   0.790E-03    0.158E-02
DAV:  16    -0.119808869422E+04   -0.17829E-04   -0.32197E-06  7736   0.384E-03    0.736E-03
DAV:  17    -0.119808870143E+04   -0.72035E-05   -0.82409E-07  6672   0.399E-03    0.976E-03
DAV:  18    -0.119808870624E+04   -0.48146E-05   -0.44533E-07  5576   0.234E-03    0.285E-03
DAV:  19    -0.119808871272E+04   -0.64827E-05   -0.20909E-07  4336   0.115E-03    0.271E-03
DAV:  20    -0.119808871555E+04   -0.28280E-05   -0.93620E-08  3800   0.966E-04    0.136E-03
DAV:  21    -0.119808871971E+04   -0.41594E-05   -0.17525E-07  4296   0.839E-04    0.217E-03
DAV:  22    -0.119808872052E+04   -0.80781E-06   -0.51902E-08  3712   0.483E-04    0.139E-03
DAV:  23    -0.119808872128E+04   -0.76555E-06   -0.35467E-08  3616   0.294E-04    0.112E-03
DAV:  24    -0.119808872146E+04   -0.17928E-06   -0.19158E-08  3688   0.285E-04    0.358E-04
DAV:  25    -0.119808872154E+04   -0.78464E-07   -0.14756E-08  3664   0.157E-04
  15 F= -.12478488E+04 E0= -.12476390E+04  d E =-.310543E+00
       N       E                     dE             d eps       ncg     rms          rms(c)
DAV:   1    -0.119790621906E+04    0.18250E+00   -0.21494E+02  6224   0.186E+01    0.315E+00
DAV:   2    -0.120265548120E+04   -0.47493E+01   -0.53141E+00  7264   0.865E+00    0.375E+01
DAV:   3    -0.119849745534E+04    0.41580E+01   -0.84326E+00  7016   0.852E+00    0.554E+00
DAV:   4    -0.119843136759E+04    0.66088E-01   -0.51164E-01  8216   0.364E+00    0.943E+00
DAV:   5    -0.119814165865E+04    0.28971E+00   -0.21909E-01  7232   0.258E+00    0.372E+00
DAV:   6    -0.119811885325E+04    0.22805E-01   -0.15533E-01  8392   0.129E+00    0.281E+00
DAV:   7    -0.119811061922E+04    0.82340E-02   -0.39988E-02  9000   0.562E-01    0.976E-01
DAV:   8    -0.119811136409E+04   -0.74487E-03   -0.10015E-02  9936   0.260E-01    0.493E-01
DAV:   9    -0.119811371530E+04   -0.23512E-02   -0.22599E-03  6936   0.106E-01    0.132E-01
DAV:  10    -0.119811446279E+04   -0.74749E-03   -0.63874E-04  6632   0.730E-02    0.202E-01
DAV:  11    -0.119811456571E+04   -0.10292E-03   -0.71352E-05  6888   0.261E-02    0.214E-01
DAV:  12    -0.119811452137E+04    0.44346E-04   -0.73666E-05  7072   0.295E-02    0.148E-01
DAV:  13    -0.119811446648E+04    0.54888E-04   -0.22651E-05  7304   0.239E-02    0.823E-02
DAV:  14    -0.119811449944E+04   -0.32964E-04   -0.16971E-05 10032   0.768E-03    0.651E-02
DAV:  15    -0.119811451849E+04   -0.19046E-04   -0.17767E-06  6768   0.272E-03    0.657E-02
DAV:  16    -0.119811452032E+04   -0.18349E-05   -0.11274E-07  3656   0.991E-04    0.660E-02
DAV:  17    -0.119811451783E+04    0.24954E-05   -0.51846E-06  6464   0.485E-03    0.572E-02
DAV:  18    -0.119811452822E+04   -0.10388E-04   -0.23118E-06  7864   0.516E-03    0.490E-02
DAV:  19    -0.119811456302E+04   -0.34807E-04   -0.20667E-06  8152   0.772E-03    0.369E-02
DAV:  20    -0.119811459024E+04   -0.27217E-04   -0.43880E-06  8344   0.478E-03    0.350E-02
DAV:  21    -0.119811459073E+04   -0.48382E-06   -0.19061E-06  6736   0.360E-03    0.259E-02
DAV:  22    -0.119811459097E+04   -0.24168E-06   -0.74028E-08  3728   0.705E-04    0.269E-02
DAV:  23    -0.119811459076E+04    0.21036E-06   -0.94191E-08  3528   0.918E-04    0.229E-02
DAV:  24    -0.119811459083E+04   -0.68336E-07   -0.47646E-06  7336   0.546E-03    0.462E-03
DAV:  25    -0.119811459119E+04   -0.36799E-06   -0.39818E-07  5144   0.141E-03    0.589E-03
DAV:  26    -0.119811459118E+04    0.83819E-08   -0.22066E-07  4216   0.151E-03
  16 F= -.12479520E+04 E0= -.12477442E+04  d E =-.103202E+00
       N       E                     dE             d eps       ncg     rms          rms(c)
DAV:   1    -0.119807148210E+04    0.43109E-01   -0.29593E+01  6216   0.691E+00    0.117E+00
DAV:   2    -0.119872170469E+04   -0.65022E+00   -0.10970E+00  7432   0.321E+00    0.133E+01
DAV:   3    -0.119810956208E+04    0.61214E+00   -0.73731E-01  7016   0.329E+00    0.239E+00
DAV:   4    -0.119813689210E+04   -0.27330E-01   -0.64944E-02  8336   0.130E+00    0.346E+00
DAV:   5    -0.119809825005E+04    0.38642E-01   -0.23497E-02  7440   0.903E-01    0.136E+00
DAV:   6    -0.119809670371E+04    0.15463E-02   -0.10294E-02  8368   0.449E-01    0.112E+00
DAV:   7    -0.119809554613E+04    0.11576E-02   -0.39567E-03  8520   0.231E-01    0.290E-01
DAV:   8    -0.119809569876E+04   -0.15263E-03   -0.16870E-03  9936   0.104E-01    0.945E-02
DAV:   9    -0.119809625424E+04   -0.55548E-03   -0.34871E-04  6800   0.354E-02    0.538E-02
DAV:  10    -0.119809646548E+04   -0.21125E-03   -0.29569E-05  7500   0.154E-02    0.491E-02
DAV:  11    -0.119809651916E+04   -0.53675E-04   -0.58987E-06  7064   0.778E-03    0.612E-02
DAV:  12    -0.119809651504E+04    0.41177E-05   -0.46576E-06  7632   0.732E-03    0.496E-02
DAV:  13    -0.119809651367E+04    0.13766E-05   -0.11759E-06  7184   0.605E-03    0.275E-02
DAV:  14    -0.119809653100E+04   -0.17331E-04   -0.77522E-07  6792   0.179E-03    0.242E-02
DAV:  15    -0.119809653428E+04   -0.32877E-05   -0.13074E-07  3888   0.127E-03    0.177E-02
DAV:  16    -0.119809653980E+04   -0.55138E-05   -0.48042E-07  5280   0.310E-03    0.487E-03
DAV:  17    -0.119809654276E+04   -0.29627E-05   -0.61403E-07  5704   0.147E-03    0.479E-03
DAV:  18    -0.119809654304E+04   -0.27451E-06   -0.46755E-08  3656   0.579E-04    0.297E-03
DAV:  19    -0.119809654352E+04   -0.48941E-06   -0.22073E-08  3496   0.581E-04    0.106E-03
DAV:  20    -0.119809654361E+04   -0.80327E-07   -0.29415E-08  3680   0.274E-04
  17 F= -.12479603E+04 E0= -.12477533E+04  d E =-.111495E+00
       N       E                     dE             d eps       ncg     rms          rms(c)
DAV:   1    -0.119808737208E+04    0.91714E-02   -0.26140E+01  6216   0.645E+00    0.109E+00
DAV:   2    -0.119833781798E+04   -0.25045E+00   -0.55827E-01  7984   0.214E+00    0.810E+00
DAV:   3    -0.119813579638E+04    0.20202E+00   -0.10003E-01  6848   0.241E+00    0.289E+00
DAV:   4    -0.119815844796E+04   -0.22652E-01   -0.44328E-02  7988   0.121E+00    0.337E+00
DAV:   5    -0.119812184417E+04    0.36604E-01   -0.24614E-02  7880   0.107E+00    0.115E+00
DAV:   6    -0.119811789213E+04    0.39520E-02   -0.93408E-03  8120   0.432E-01    0.939E-01
DAV:   7    -0.119811654806E+04    0.13441E-02   -0.37273E-03  8208   0.264E-01    0.247E-01
DAV:   8    -0.119811658034E+04   -0.32280E-04   -0.16698E-03  8356   0.102E-01    0.155E-01
DAV:   9    -0.119811637664E+04    0.20370E-03   -0.28334E-04  8472   0.452E-02    0.761E-02
DAV:  10    -0.119811649164E+04   -0.11501E-03   -0.40432E-05  8768   0.158E-02    0.113E-01
DAV:  11    -0.119811647668E+04    0.14968E-04   -0.25181E-05  8624   0.194E-02    0.590E-02
DAV:  12    -0.119811648667E+04   -0.99901E-05   -0.77897E-06  7904   0.103E-02    0.389E-02
DAV:  13    -0.119811648959E+04   -0.29249E-05   -0.16643E-06  8096   0.474E-03    0.210E-02
DAV:  14    -0.119811649238E+04   -0.27850E-05   -0.15301E-06  7496   0.406E-03    0.879E-03
DAV:  15    -0.119811649308E+04   -0.70792E-06   -0.93618E-07  6400   0.259E-03    0.458E-03
DAV:  16    -0.119811649356E+04   -0.47276E-06   -0.11525E-07  3632   0.759E-04    0.326E-03
DAV:  17    -0.119811649385E+04   -0.29453E-06   -0.47265E-08  3560   0.603E-04    0.193E-03
DAV:  18    -0.119811649398E+04   -0.12782E-06   -0.32697E-08  3632   0.462E-04    0.639E-04
DAV:  19    -0.119811649404E+04   -0.62515E-07   -0.28294E-08  3672   0.331E-04
  18 F= -.12479891E+04 E0= -.12477837E+04  d E =-.288848E-01
       N       E                     dE             d eps       ncg     rms          rms(c)
DAV:   1    -0.119811174350E+04    0.47505E-02   -0.34010E+00  6216   0.233E+00    0.391E-01
DAV:   2    -0.119814415127E+04   -0.32408E-01   -0.58105E-02  8064   0.770E-01    0.296E+00
DAV:   3    -0.119811505451E+04    0.29097E-01   -0.36460E-02  6896   0.848E-01    0.104E+00
DAV:   4    -0.119812082436E+04   -0.57698E-02   -0.51601E-03  7740   0.429E-01    0.125E+00
DAV:   5    -0.119811561719E+04    0.52072E-02   -0.29704E-03  7672   0.378E-01    0.379E-01
DAV:   6    -0.119811520449E+04    0.41270E-03   -0.98471E-04  8232   0.139E-01    0.298E-01
DAV:   7    -0.119811536370E+04   -0.15922E-03   -0.45160E-04  8528   0.893E-02    0.990E-02
DAV:   8    -0.119811541810E+04   -0.54398E-04   -0.19330E-04  8512   0.357E-02    0.497E-02
DAV:   9    -0.119811538944E+04    0.28661E-04   -0.29944E-05  8512   0.164E-02    0.245E-02
DAV:  10    -0.119811540703E+04   -0.17590E-04   -0.52529E-06  8744   0.513E-03    0.331E-02
DAV:  11    -0.119811540760E+04   -0.57102E-06   -0.25393E-06  8264   0.527E-03    0.211E-02
DAV:  12    -0.119811540715E+04    0.45437E-06   -0.76832E-07  6256   0.391E-03    0.103E-02
DAV:  13    -0.119811540782E+04   -0.67451E-06   -0.14003E-07  3648   0.194E-03    0.384E-03
DAV:  14    -0.119811540817E+04   -0.34727E-06   -0.39250E-07  4672   0.107E-03    0.137E-03
DAV:  15    -0.119811540822E+04   -0.54715E-07   -0.74659E-08  3624   0.574E-04
  19 F= -.12479913E+04 E0= -.12477864E+04  d E =-.310280E-01
       N       E                     dE             d eps       ncg     rms          rms(c)
DAV:   1    -0.119811405213E+04    0.13560E-02   -0.34565E+00  6216   0.239E+00    0.432E-01
DAV:   2    -0.119814749333E+04   -0.33441E-01   -0.66994E-02  8568   0.837E-01    0.303E+00
DAV:   3    -0.119812282050E+04    0.24673E-01   -0.12619E-02  6864   0.774E-01    0.832E-01
DAV:   4    -0.119812913533E+04   -0.63148E-02   -0.85829E-03  7616   0.529E-01    0.167E+00
DAV:   5    -0.119812008724E+04    0.90481E-02   -0.50226E-03  7128   0.435E-01    0.721E-01
DAV:   6    -0.119811962069E+04    0.46655E-03   -0.15044E-03  8776   0.179E-01    0.252E-01
DAV:   7    -0.119811934948E+04    0.27121E-03   -0.77557E-04  9376   0.663E-02    0.118E-01
DAV:   8    -0.119811955369E+04   -0.20421E-03   -0.13392E-04  7816   0.323E-02    0.256E-02
DAV:   9    -0.119811964929E+04   -0.95602E-04   -0.44009E-05  7232   0.129E-02    0.121E-02
DAV:  10    -0.119811966612E+04   -0.16834E-04   -0.41673E-06  7472   0.680E-03    0.254E-02
DAV:  11    -0.119811966287E+04    0.32508E-05   -0.20143E-06  7104   0.606E-03    0.175E-02
DAV:  12    -0.119811966794E+04   -0.50706E-05   -0.13187E-06  6720   0.389E-03    0.676E-03
DAV:  13    -0.119811967013E+04   -0.21848E-05   -0.41285E-07  5288   0.159E-03    0.451E-03
DAV:  14    -0.119811967052E+04   -0.38883E-06   -0.97967E-08  3616   0.597E-04    0.441E-03
DAV:  15    -0.119811967101E+04   -0.48894E-06   -0.36402E-08  3480   0.816E-04    0.144E-03
DAV:  16    -0.119811967123E+04   -0.22631E-06   -0.80418E-08  3592   0.573E-04    0.137E-03
DAV:  17    -0.119811967124E+04   -0.62864E-08   -0.35545E-08  3504   0.403E-04
  20 F= -.12479968E+04 E0= -.12477927E+04  d E =-.550441E-02
       N       E                     dE             d eps       ncg     rms          rms(c)
DAV:   1    -0.119811194221E+04    0.77290E-02   -0.53405E+00  6216   0.297E+00    0.536E-01
DAV:   2    -0.119816245367E+04   -0.50511E-01   -0.10471E-01  8528   0.103E+00    0.371E+00
DAV:   3    -0.119812608621E+04    0.36367E-01   -0.27440E-02  6848   0.955E-01    0.104E+00
DAV:   4    -0.119813528038E+04   -0.91942E-02   -0.16118E-02  7672   0.657E-01    0.207E+00
DAV:   5    -0.119812172170E+04    0.13559E-01   -0.91720E-03  7168   0.539E-01    0.886E-01
DAV:   6    -0.119812067055E+04    0.10512E-02   -0.25741E-03  8832   0.220E-01    0.314E-01
DAV:   7    -0.119812022449E+04    0.44606E-03   -0.11431E-03  9416   0.819E-02    0.147E-01
DAV:   8    -0.119812047374E+04   -0.24926E-03   -0.20713E-04  7800   0.398E-02    0.314E-02
DAV:   9    -0.119812059197E+04   -0.11822E-03   -0.67823E-05  7192   0.162E-02    0.164E-02
DAV:  10    -0.119812062173E+04   -0.29764E-04   -0.71298E-06  7288   0.845E-03    0.321E-02
DAV:  11    -0.119812061538E+04    0.63544E-05   -0.27566E-06  7320   0.649E-03    0.229E-02
DAV:  12    -0.119812062534E+04   -0.99662E-05   -0.20661E-06  7888   0.487E-03    0.110E-02
DAV:  13    -0.119812063003E+04   -0.46907E-05   -0.68841E-07  5824   0.263E-03    0.546E-03
DAV:  14    -0.119812063087E+04   -0.84017E-06   -0.16716E-07  3856   0.788E-04    0.496E-03
DAV:  15    -0.119812063189E+04   -0.10183E-05   -0.55309E-08  3416   0.129E-03    0.176E-03
DAV:  16    -0.119812063204E+04   -0.14761E-06   -0.13618E-07  3648   0.655E-04    0.946E-04
DAV:  17    -0.119812063203E+04    0.84983E-08   -0.30709E-08  3496   0.325E-04
  21 F= -.12479993E+04 E0= -.12477962E+04  d E =-.800654E-02
       N       E                     dE             d eps       ncg     rms          rms(c)
DAV:   1    -0.119812130670E+04   -0.67466E-03   -0.41659E-02  6232   0.248E-01    0.451E-02
DAV:   2    -0.119812144476E+04   -0.13806E-03   -0.40652E-04  7064   0.664E-02    0.194E-01
DAV:   3    -0.119812139757E+04    0.47195E-04   -0.14943E-04  7024   0.764E-02    0.108E-01
DAV:   4    -0.119812146169E+04   -0.64121E-04   -0.58609E-05  7768   0.593E-02    0.232E-01
DAV:   5    -0.119812116918E+04    0.29251E-03   -0.39576E-05  7272   0.524E-02    0.414E-02
DAV:   6    -0.119812135157E+04   -0.18238E-03   -0.11110E-05  7808   0.133E-02    0.326E-02
DAV:   7    -0.119812134063E+04    0.10932E-04   -0.47234E-06  8592   0.660E-03    0.565E-03
DAV:   8    -0.119812134726E+04   -0.66212E-05   -0.14984E-06  6784   0.271E-03    0.385E-03
DAV:   9    -0.119812134789E+04   -0.63586E-06   -0.39903E-07  5008   0.158E-03    0.116E-03
DAV:  10    -0.119812134797E+04   -0.79395E-07   -0.46236E-08  3544   0.724E-04
  22 F= -.12479993E+04 E0= -.12477963E+04  d E =-.168157E-04
       N       E                     dE             d eps       ncg     rms          rms(c)
DAV:   1    -0.119812116212E+04    0.18578E-03   -0.29131E-03  6248   0.655E-02    0.122E-02
DAV:   2    -0.119812117798E+04   -0.15859E-04   -0.28349E-05  6920   0.206E-02    0.671E-02
DAV:   3    -0.119812116804E+04    0.99397E-05   -0.11739E-05  6848   0.227E-02    0.316E-02
DAV:   4    -0.119812116876E+04   -0.72492E-06   -0.47093E-06  7272   0.152E-02    0.504E-02
DAV:   5    -0.119812115510E+04    0.13665E-04   -0.26224E-06  6600   0.127E-02    0.116E-02
DAV:   6    -0.119812116546E+04   -0.10361E-04   -0.71786E-07  5880   0.357E-03    0.673E-03
DAV:   7    -0.119812116502E+04    0.43830E-06   -0.32312E-07  4752   0.166E-03    0.129E-03
DAV:   8    -0.119812116537E+04   -0.35332E-06   -0.10715E-07  3576   0.775E-04    0.165E-03
DAV:   9    -0.119812116542E+04   -0.51339E-07   -0.60468E-08  3488   0.507E-04
  23 F= -.12479993E+04 E0= -.12477963E+04  d E =-.191998E-04
       N       E                     dE             d eps       ncg     rms          rms(c)
DAV:   1    -0.119812157264E+04   -0.40727E-03   -0.57442E-03  6240   0.920E-02    0.148E-02
DAV:   2    -0.119812166467E+04   -0.92029E-04   -0.46143E-05  7160   0.388E-02    0.166E-01
DAV:   3    -0.119812142871E+04    0.23596E-03   -0.25504E-05  7248   0.399E-02    0.363E-02
DAV:   4    -0.119812157485E+04   -0.14614E-03   -0.92781E-06  7988   0.163E-02    0.404E-02
DAV:   5    -0.119812156125E+04    0.13599E-04   -0.32642E-06  7184   0.102E-02    0.140E-02
DAV:   6    -0.119812157110E+04   -0.98515E-05   -0.15433E-06  6896   0.490E-03    0.103E-02
DAV:   7    -0.119812157415E+04   -0.30450E-05   -0.59841E-07  5472   0.282E-03    0.147E-03
DAV:   8    -0.119812157483E+04   -0.68673E-06   -0.20460E-07  4320   0.105E-03    0.889E-04
DAV:   9    -0.119812157512E+04   -0.28429E-06   -0.94781E-08  3520   0.598E-04    0.157E-03
DAV:  10    -0.119812157511E+04    0.55879E-08   -0.29319E-08  3480   0.535E-04
  24 F= -.12479993E+04 E0= -.12477963E+04  d E =-.592670E-05
       N       E                     dE             d eps       ncg     rms          rms(c)
DAV:   1    -0.119812248898E+04   -0.91386E-03   -0.29877E-02  6240   0.210E-01    0.338E-02
DAV:   2    -0.119812294231E+04   -0.45333E-03   -0.28517E-04  7204   0.869E-02    0.370E-01
DAV:   3    -0.119812212593E+04    0.81638E-03   -0.17558E-04  7168   0.896E-02    0.855E-02
DAV:   4    -0.119812249744E+04   -0.37151E-03   -0.48272E-05  8132   0.371E-02    0.892E-02
DAV:   5    -0.119812242463E+04    0.72809E-04   -0.16422E-05  7676   0.229E-02    0.295E-02
DAV:   6    -0.119812248259E+04   -0.57959E-04   -0.79106E-06  8296   0.108E-02    0.231E-02
DAV:   7    -0.119812249871E+04   -0.16116E-04   -0.30159E-06  7704   0.586E-03    0.374E-03
DAV:   8    -0.119812250249E+04   -0.37815E-05   -0.89915E-07  6568   0.228E-03    0.163E-03
DAV:   9    -0.119812250396E+04   -0.14689E-05   -0.24566E-07  4056   0.108E-03    0.292E-03
DAV:  10    -0.119812250403E+04   -0.74739E-07   -0.80916E-08  3592   0.103E-03
  25 F= -.12479993E+04 E0= -.12477963E+04  d E =-.115868E-04
       N       E                     dE             d eps       ncg     rms          rms(c)
DAV:   1    -0.119812296322E+04   -0.45927E-03   -0.93882E-03  6232   0.126E-01    0.161E-02
DAV:   2    -0.119812296564E+04   -0.24214E-05   -0.10460E-04  8732   0.166E-02    0.321E-02
DAV:   3    -0.119812295934E+04    0.63084E-05   -0.11650E-05  7944   0.241E-02    0.763E-02
DAV:   4    -0.119812297537E+04   -0.16039E-04   -0.40454E-06  7744   0.181E-02    0.371E-02
DAV:   5    -0.119812295365E+04    0.21721E-04   -0.21980E-06  7276   0.122E-02    0.163E-02
DAV:   6    -0.119812297077E+04   -0.17116E-04   -0.94637E-07  6888   0.431E-03    0.107E-02
DAV:   7    -0.119812297106E+04   -0.29022E-06   -0.60071E-07  5876   0.257E-03    0.472E-03
DAV:   8    -0.119812297098E+04    0.84750E-07   -0.14653E-07  3944   0.111E-03
  26 F= -.12479993E+04 E0= -.12477963E+04  d E =-.332371E-05
       N       E                     dE             d eps       ncg     rms          rms(c)
DAV:   1    -0.119812362184E+04   -0.65078E-03   -0.19469E-02  6228   0.182E-01    0.237E-02
DAV:   2    -0.119812364236E+04   -0.20515E-04   -0.20931E-04  7928   0.299E-02    0.818E-02
DAV:   3    -0.119812356000E+04    0.82357E-04   -0.30976E-05  7920   0.374E-02    0.892E-02
DAV:   4    -0.119812364500E+04   -0.84993E-04   -0.81965E-06  7684   0.205E-02    0.389E-02
DAV:   5    -0.119812361329E+04    0.31701E-04   -0.46270E-06  7596   0.147E-02    0.221E-02
DAV:   6    -0.119812363874E+04   -0.25446E-04   -0.27047E-06  7872   0.672E-03    0.182E-02
DAV:   7    -0.119812363941E+04   -0.67358E-06   -0.12960E-06  6872   0.351E-03    0.833E-03
DAV:   8    -0.119812363920E+04    0.21025E-06   -0.33932E-07  4704   0.183E-03    0.416E-03
DAV:   9    -0.119812363962E+04   -0.41455E-06   -0.92777E-08  3552   0.805E-04    0.204E-03
DAV:  10    -0.119812363973E+04   -0.11246E-06   -0.42839E-08  3480   0.451E-04    0.336E-04
DAV:  11    -0.119812363980E+04   -0.64261E-07   -0.28327E-08  3432   0.335E-04
  27 F= -.12479993E+04 E0= -.12477962E+04  d E =-.408155E-05
       N       E                     dE             d eps       ncg     rms          rms(c)
DAV:   1    -0.119812387666E+04   -0.23693E-03   -0.62371E-03  6264   0.980E-02    0.129E-02
DAV:   2    -0.119812389477E+04   -0.18110E-04   -0.40113E-05  7120   0.208E-02    0.708E-02
DAV:   3    -0.119812384621E+04    0.48559E-04   -0.13282E-05  7768   0.235E-02    0.377E-02
DAV:   4    -0.119812388480E+04   -0.38589E-04   -0.42861E-06  7620   0.131E-02    0.364E-02
DAV:   5    -0.119812387327E+04    0.11528E-04   -0.23480E-06  6704   0.104E-02    0.101E-02
DAV:   6    -0.119812387953E+04   -0.62572E-05   -0.83726E-07  5648   0.412E-03    0.806E-03
DAV:   7    -0.119812388014E+04   -0.61758E-06   -0.40724E-07  5112   0.192E-03    0.332E-03
DAV:   8    -0.119812388016E+04   -0.20140E-07   -0.13187E-07  3624   0.102E-03
  28 F= -.12479993E+04 E0= -.12477962E+04  d E =-.371359E-06
       N       E                     dE             d eps       ncg     rms          rms(c)
DAV:   1    -0.119812375914E+04    0.12101E-03   -0.15504E-03  6280   0.489E-02    0.623E-03
DAV:   2    -0.119812376189E+04   -0.27510E-05   -0.10799E-05  7288   0.873E-03    0.252E-02
DAV:   3    -0.119812375803E+04    0.38556E-05   -0.26738E-06  7112   0.101E-02    0.203E-02
DAV:   4    -0.119812376207E+04   -0.40359E-05   -0.10629E-06  5960   0.746E-03    0.225E-02
DAV:   5    -0.119812375825E+04    0.38195E-05   -0.63649E-07  5176   0.631E-03    0.507E-03
DAV:   6    -0.119812376055E+04   -0.23034E-05   -0.17292E-07  3712   0.203E-03    0.414E-03
DAV:   7    -0.119812376070E+04   -0.14424E-06   -0.10909E-07  3504   0.112E-03    0.173E-03
DAV:   8    -0.119812376076E+04   -0.66473E-07   -0.65311E-08  3352   0.538E-04
  29 F= -.12479993E+04 E0= -.12477962E+04  d E =-.695743E-06
