<?xml version="1.0" encoding="ISO-8859-1"?>
<modeling>
 <generator>
  <i name="program" type="string">vasp </i>
  <i name="version" type="string">6.2.1  </i>
  <i name="subversion" type="string">16May21 (build May 12 2022 08:28:04) complex                          parallel </i>
  <i name="platform" type="string">LinuxPGI </i>
  <i name="date" type="string">2022 07 13 </i>
  <i name="time" type="string">02:13:03 </i>
 </generator>
 <incar>
  <i type="string" name="SYSTEM">NiAl</i>
  <i type="int" name="ISTART">     0</i>
  <i type="int" name="NELMIN">     6</i>
  <i type="int" name="IBRION">     2</i>
  <i name="EDIFF">      0.00000500</i>
  <i type="int" name="NSW">    40</i>
  <i type="int" name="ISIF">     0</i>
  <i name="ENCUT">    360.00000000</i>
  <i name="POTIM">      0.20000000</i>
  <i type="string" name="LREAL">Auto</i>
  <i type="logical" name="LPLANE"> T  </i>
  <i type="int" name="ISMEAR">     0</i>
  <i name="SIGMA">      0.05000000</i>
  <i type="logical" name="LWAVE"> F  </i>
  <i type="logical" name="LCHARG"> F  </i>
  <i type="int" name="IVDW">    12</i>
 </incar>
 <primitive_cell>
  <structure name="primitive_cell" >
   <crystal>
    <varray name="basis" >
     <v>      -1.05415002      -1.82584140       0.00000000 </v>
     <v>       2.10830005       0.00000000       0.00000000 </v>
     <v>       0.00000000       0.00000000       2.10830005 </v>
    </varray>
    <i name="volume">      8.11573558 </i>
    <varray name="rec_basis" >
     <v>       0.00000000      -0.54769270       0.00000000 </v>
     <v>       0.47431579      -0.27384635       0.00000000 </v>
     <v>      -0.00000000       0.00000000       0.47431579 </v>
    </varray>
   </crystal>
   <varray name="positions" >
    <v>       0.00000000       0.00000000       0.00000000 </v>
    <v>       0.50000000       0.50000000       0.50000000 </v>
   </varray>
  </structure>
  <varray name="primitive_index" >
   <v type="int" >        1 </v>
   <v type="int" >      126 </v>
  </varray>
 </primitive_cell>
 <kpoints>
  <generation param="Gamma">
   <v type="int" name="divisions">       2        2        2 </v>
   <v name="usershift">      0.00000000       0.00000000       0.00000000 </v>
   <v name="genvec1">      0.50000000      -0.00000000       0.00000000 </v>
   <v name="genvec2">      0.00000000       0.50000000       0.00000000 </v>
   <v name="genvec3">      0.00000000       0.00000000       0.50000000 </v>
   <v name="shift">      0.00000000       0.00000000       0.00000000 </v>
  </generation>
  <varray name="kpointlist" >
   <v>       0.00000000       0.00000000       0.00000000 </v>
   <v>       0.50000000       0.00000000       0.00000000 </v>
   <v>       0.50000000       0.50000000       0.00000000 </v>
   <v>       0.00000000       0.00000000       0.50000000 </v>
   <v>       0.50000000       0.00000000       0.50000000 </v>
   <v>       0.50000000       0.50000000       0.50000000 </v>
  </varray>
  <varray name="weights" >
   <v>       0.12500000 </v>
   <v>       0.25000000 </v>
   <v>       0.12500000 </v>
   <v>       0.12500000 </v>
   <v>       0.25000000 </v>
   <v>       0.12500000 </v>
  </varray>
 </kpoints>
 <parameters>
  <separator name="general" >
   <i type="string" name="SYSTEM">NiAl</i>
   <i type="logical" name="LCOMPAT"> F  </i>
  </separator>
  <separator name="electronic" >
   <i type="string" name="PREC">normal</i>
   <i name="ENMAX">    360.00000000</i>
   <i name="ENAUG">   1139.60900000</i>
   <i name="EDIFF">      0.00000500</i>
   <i type="int" name="IALGO">    38</i>
   <i type="int" name="IWAVPR">    11</i>
   <i type="int" name="NBANDS">  1200</i>
   <i type="int" name="NBANDSLOW">    -1</i>
   <i type="int" name="NBANDSHIGH">    -1</i>
   <i name="NELECT">   2000.00000000</i>
   <i type="int" name="TURBO">     0</i>
   <i type="int" name="IRESTART">     0</i>
   <i type="int" name="NREBOOT">     0</i>
   <i type="int" name="NMIN">     0</i>
   <i name="EREF">      0.00000000</i>
   <separator name="electronic smearing" >
    <i type="int" name="ISMEAR">     0</i>
    <i name="SIGMA">      0.05000000</i>
    <i name="KSPACING">      0.50000000</i>
    <i type="logical" name="KGAMMA"> T  </i>
    <i type="logical" name="KBLOWUP"> T  </i>
   </separator>
   <separator name="electronic projectors" >
    <i type="logical" name="LREAL"> T  </i>
    <v name="ROPT">     -0.00050000     -0.00050000</v>
    <i type="int" name="LMAXPAW">  -100</i>
    <i type="int" name="LMAXMIX">     2</i>
    <i type="logical" name="NLSPLINE"> F  </i>
   </separator>
   <separator name="electronic startup" >
    <i type="int" name="ISTART">     0</i>
    <i type="int" name="ICHARG">     2</i>
    <i type="int" name="INIWAV">     1</i>
   </separator>
   <separator name="electronic spin" >
    <i type="int" name="ISPIN">     1</i>
    <i type="logical" name="LNONCOLLINEAR"> F  </i>
    <v name="MAGMOM">      1.00000000      1.00000000      1.00000000      1.00000000      1.00000000      1.00000000      1.00000000      1.00000000      1.00000000      1.00000000      1.00000000      1.00000000      1.00000000      1.00000000      1.00000000      1.00000000      1.00000000      1.00000000      1.00000000      1.00000000
      1.00000000      1.00000000      1.00000000      1.00000000      1.00000000      1.00000000      1.00000000      1.00000000      1.00000000      1.00000000      1.00000000      1.00000000      1.00000000      1.00000000      1.00000000      1.00000000      1.00000000      1.00000000      1.00000000      1.00000000
      1.00000000      1.00000000      1.00000000      1.00000000      1.00000000      1.00000000      1.00000000      1.00000000      1.00000000      1.00000000      1.00000000      1.00000000      1.00000000      1.00000000      1.00000000      1.00000000      1.00000000      1.00000000      1.00000000      1.00000000
      1.00000000      1.00000000      1.00000000      1.00000000      1.00000000      1.00000000      1.00000000      1.00000000      1.00000000      1.00000000      1.00000000      1.00000000      1.00000000      1.00000000      1.00000000      1.00000000      1.00000000      1.00000000      1.00000000      1.00000000
      1.00000000      1.00000000      1.00000000      1.00000000      1.00000000      1.00000000      1.00000000      1.00000000      1.00000000      1.00000000      1.00000000      1.00000000      1.00000000      1.00000000      1.00000000      1.00000000      1.00000000      1.00000000      1.00000000      1.00000000
      1.00000000      1.00000000      1.00000000      1.00000000      1.00000000      1.00000000      1.00000000      1.00000000      1.00000000      1.00000000      1.00000000      1.00000000      1.00000000      1.00000000      1.00000000      1.00000000      1.00000000      1.00000000      1.00000000      1.00000000
      1.00000000      1.00000000      1.00000000      1.00000000      1.00000000      1.00000000      1.00000000      1.00000000      1.00000000      1.00000000      1.00000000      1.00000000      1.00000000      1.00000000      1.00000000      1.00000000      1.00000000      1.00000000      1.00000000      1.00000000
      1.00000000      1.00000000      1.00000000      1.00000000      1.00000000      1.00000000      1.00000000      1.00000000      1.00000000      1.00000000      1.00000000      1.00000000      1.00000000      1.00000000      1.00000000      1.00000000      1.00000000      1.00000000      1.00000000      1.00000000
      1.00000000      1.00000000      1.00000000      1.00000000      1.00000000      1.00000000      1.00000000      1.00000000      1.00000000      1.00000000      1.00000000      1.00000000      1.00000000      1.00000000      1.00000000      1.00000000      1.00000000      1.00000000      1.00000000      1.00000000
      1.00000000      1.00000000      1.00000000      1.00000000      1.00000000      1.00000000      1.00000000      1.00000000      1.00000000      1.00000000      1.00000000      1.00000000      1.00000000      1.00000000      1.00000000      1.00000000      1.00000000      1.00000000      1.00000000      1.00000000
      1.00000000      1.00000000      1.00000000      1.00000000      1.00000000      1.00000000      1.00000000      1.00000000      1.00000000      1.00000000      1.00000000      1.00000000      1.00000000      1.00000000      1.00000000      1.00000000      1.00000000      1.00000000      1.00000000      1.00000000
      1.00000000      1.00000000      1.00000000      1.00000000      1.00000000      1.00000000      1.00000000      1.00000000      1.00000000      1.00000000      1.00000000      1.00000000      1.00000000      1.00000000      1.00000000      1.00000000      1.00000000      1.00000000      1.00000000      1.00000000
      1.00000000      1.00000000      1.00000000      1.00000000      1.00000000      1.00000000      1.00000000      1.00000000      1.00000000      1.00000000</v>
    <i name="NUPDOWN">     -1.00000000</i>
    <i type="logical" name="LSORBIT"> F  </i>
    <v name="SAXIS">      0.00000000      0.00000000      1.00000000</v>
    <i type="logical" name="LSPIRAL"> F  </i>
    <v name="QSPIRAL">      0.00000000      0.00000000      0.00000000</v>
    <i type="logical" name="LZEROZ"> F  </i>
   </separator>
   <separator name="electronic exchange-correlation" >
    <i type="logical" name="LASPH"> F  </i>
    <i type="logical" name="LMETAGGA"> F  </i>
   </separator>
   <separator name="electronic convergence" >
    <i type="int" name="NELM">    60</i>
    <i type="int" name="NELMDL">    -5</i>
    <i type="int" name="NELMIN">     6</i>
    <i name="ENINI">    360.00000000</i>
    <separator name="electronic convergence detail" >
     <i type="logical" name="LDIAG"> T  </i>
     <i type="logical" name="LSUBROT"> F  </i>
     <i name="WEIMIN">      0.00100000</i>
     <i name="EBREAK">      0.00000000</i>
     <i name="DEPER">      0.30000000</i>
     <i type="int" name="NRMM">     4</i>
     <i name="TIME">      0.40000000</i>
    </separator>
   </separator>
   <separator name="electronic mixer" >
    <i name="AMIX">      0.40000000</i>
    <i name="BMIX">      1.00000000</i>
    <i name="AMIN">      0.10000000</i>
    <i name="AMIX_MAG">      1.60000000</i>
    <i name="BMIX_MAG">      1.00000000</i>
    <separator name="electronic mixer details" >
     <i type="int" name="IMIX">     4</i>
     <i type="logical" name="MIXFIRST"> F  </i>
     <i type="int" name="MAXMIX">   -45</i>
     <i name="WC">    100.00000000</i>
     <i type="int" name="INIMIX">     1</i>
     <i type="int" name="MIXPRE">     1</i>
     <i type="int" name="MREMOVE">     5</i>
    </separator>
   </separator>
   <separator name="electronic dipolcorrection" >
    <i type="logical" name="LDIPOL"> F  </i>
    <i type="logical" name="LMONO"> F  </i>
    <i type="int" name="IDIPOL">     0</i>
    <i name="EPSILON">      1.00000000</i>
    <v name="DIPOL">   -100.00000000   -100.00000000   -100.00000000</v>
    <i name="EFIELD">      0.00000000</i>
   </separator>
  </separator>
  <separator name="grids" >
   <i type="int" name="NGX">    50</i>
   <i type="int" name="NGY">    50</i>
   <i type="int" name="NGZ">    50</i>
   <i type="int" name="NGXF">   100</i>
   <i type="int" name="NGYF">   100</i>
   <i type="int" name="NGZF">   100</i>
   <i type="logical" name="ADDGRID"> F  </i>
  </separator>
  <separator name="ionic" >
   <i type="int" name="NSW">    40</i>
   <i type="int" name="IBRION">     2</i>
   <i type="int" name="MDALGO">     0</i>
   <i type="int" name="ISIF">     0</i>
   <i name="PSTRESS">      0.00000000</i>
   <i name="EDIFFG">      0.00005000</i>
   <i type="int" name="NFREE">     1</i>
   <i name="POTIM">      0.20000000</i>
   <i name="SMASS">     -3.00000000</i>
   <i name="SCALEE">      1.00000000</i>
  </separator>
  <separator name="ionic md" >
   <i name="TEBEG">      0.00010000</i>
   <i name="TEEND">      0.00010000</i>
   <i type="int" name="NBLOCK">     1</i>
   <i type="int" name="KBLOCK">    40</i>
   <i type="int" name="NPACO">   256</i>
   <i name="APACO">     16.00000000</i>
  </separator>
  <separator name="symmetry" >
   <i type="int" name="ISYM">     2</i>
   <i name="SYMPREC">      0.00001000</i>
  </separator>
  <separator name="dos" >
   <i type="int" name="LORBIT">     0</i>
   <v name="RWIGS">     -1.00000000     -1.00000000</v>
   <i type="int" name="NEDOS">   301</i>
   <i name="EMIN">     10.00000000</i>
   <i name="EMAX">    -10.00000000</i>
   <i name="EFERMI">      0.00000000</i>
  </separator>
  <separator name="writing" >
   <i type="int" name="NWRITE">     2</i>
   <i type="logical" name="LWAVE"> F  </i>
   <i type="logical" name="LDOWNSAMPLE"> F  </i>
   <i type="logical" name="LCHARG"> F  </i>
   <i type="logical" name="LPARD"> F  </i>
   <i type="logical" name="LVTOT"> F  </i>
   <i type="logical" name="LVHAR"> F  </i>
   <i type="logical" name="LELF"> F  </i>
   <i type="logical" name="LOPTICS"> F  </i>
   <v name="STM">      0.00000000      0.00000000      0.00000000      0.00000000      0.00000000      0.00000000      0.00000000</v>
  </separator>
  <separator name="performance" >
   <i type="int" name="NPAR">     1</i>
   <i type="int" name="NSIM">     4</i>
   <i type="int" name="NBLK">    -1</i>
   <i type="logical" name="LPLANE"> T  </i>
   <i type="logical" name="LSCALAPACK"> T  </i>
   <i type="logical" name="LSCAAWARE"> F  </i>
   <i type="logical" name="LSCALU"> F  </i>
   <i type="logical" name="LASYNC"> F  </i>
   <i type="logical" name="LORBITALREAL"> F  </i>
  </separator>
  <separator name="miscellaneous" >
   <i type="int" name="IDIOT">     3</i>
   <i type="int" name="PHON_NSTRUCT">    -1</i>
   <i type="logical" name="LMUSIC"> F  </i>
   <v name="POMASS">     58.69000000     16.00000000</v>
   <v name="DARWINR">      0.00000000      0.00000000</v>
   <v name="DARWINV">      1.00000000      1.00000000</v>
   <i type="logical" name="LCORR"> T  </i>
  </separator>
  <i type="logical" name="GGA_COMPAT"> T  </i>
  <i type="logical" name="LBERRY"> F  </i>
  <i type="int" name="ICORELEVEL">     0</i>
  <i type="logical" name="LDAU"> F  </i>
  <i type="int" name="I_CONSTRAINED_M">     0</i>
  <separator name="electronic exchange-correlation" >
   <i type="string" name="GGA">--</i>
   <i type="int" name="VOSKOWN">     0</i>
   <i type="logical" name="LHFCALC"> F  </i>
   <i type="string" name="PRECFOCK"></i>
   <i type="logical" name="LSYMGRAD"> F  </i>
   <i type="logical" name="LHFONE"> F  </i>
   <i type="logical" name="LRHFCALC"> F  </i>
   <i type="logical" name="LTHOMAS"> F  </i>
   <i type="logical" name="LMODELHF"> F  </i>
   <i type="logical" name="LFOCKACE"> F  </i>
   <i name="ENCUT4O">     -1.00000000</i>
   <i type="int" name="EXXOEP">     0</i>
   <i type="int" name="FOURORBIT">     0</i>
   <i name="AEXX">      0.00000000</i>
   <i name="HFALPHA">      0.00000000</i>
   <i name="MCALPHA">      0.00000000</i>
   <i name="ALDAX">      1.00000000</i>
   <i name="AGGAX">      1.00000000</i>
   <i name="ALDAC">      1.00000000</i>
   <i name="AGGAC">      1.00000000</i>
   <i type="int" name="NKREDX">     1</i>
   <i type="int" name="NKREDY">     1</i>
   <i type="int" name="NKREDZ">     1</i>
   <i type="logical" name="SHIFTRED"> F  </i>
   <i type="logical" name="ODDONLY"> F  </i>
   <i type="logical" name="EVENONLY"> F  </i>
   <i type="int" name="LMAXFOCK">     0</i>
   <i type="int" name="NMAXFOCKAE">     0</i>
   <i type="logical" name="LFOCKAEDFT"> F  </i>
   <i name="HFSCREEN">      0.00000000</i>
   <i name="HFSCREENC">      0.00000000</i>
   <i type="int" name="NBANDSGWLOW">     0</i>
  </separator>
  <separator name="vdW DFT" >
   <i type="logical" name="LUSE_VDW"> F  </i>
   <i name="Zab_VDW">     -0.84910000</i>
   <i name="PARAM1">      0.12340000</i>
   <i name="PARAM2">      1.00000000</i>
   <i name="PARAM3">      0.00000000</i>
  </separator>
  <separator name="model GW" >
   <i type="int" name="MODEL_GW">     0</i>
   <i name="MODEL_EPS0">      2.43472056</i>
   <i name="MODEL_ALPHA">      1.00000000</i>
  </separator>
  <separator name="linear response parameters" >
   <i type="logical" name="LEPSILON"> F  </i>
   <i type="logical" name="LRPA"> F  </i>
   <i type="logical" name="LNABLA"> F  </i>
   <i type="logical" name="LVEL"> F  </i>
   <i type="int" name="KINTER">     0</i>
   <i name="CSHIFT">      0.10000000</i>
   <i name="OMEGAMAX">     -1.00000000</i>
   <i name="DEG_THRESHOLD">      0.00200000</i>
   <i name="RTIME">     -0.10000000</i>
   <i name="WPLASMAI">      0.00000000</i>
   <v name="DFIELD">      0.00000000      0.00000000      0.00000000</v>
   <v name="WPLASMA">      0.00000000      0.00000000      0.00000000      0.00000000      0.00000000      0.00000000      0.00000000      0.00000000      0.00000000</v>
  </separator>
  <separator name="orbital magnetization" >
   <i type="logical" name="NUCIND"> F  </i>
   <v name="MAGPOS">      0.00000000      0.00000000      0.00000000</v>
   <i type="logical" name="LNICSALL"> T  </i>
   <i type="logical" name="ORBITALMAG"> F  </i>
   <i type="logical" name="LMAGBLOCH"> F  </i>
   <i type="logical" name="LCHIMAG"> F  </i>
   <i type="logical" name="LGAUGE"> T  </i>
   <i type="int" name="MAGATOM">     0</i>
   <v name="MAGDIPOL">      0.00000000      0.00000000      0.00000000</v>
   <v name="AVECCONST">      0.00000000      0.00000000      0.00000000</v>
  </separator>
  <separator name="response functions" >
   <i type="logical" name="LFINITE_TEMPERATURE"> F  </i>
   <i type="logical" name="LADDER"> F  </i>
   <i type="logical" name="LRPAFORCE"> F  </i>
   <i type="logical" name="LFXC"> F  </i>
   <i type="logical" name="LHARTREE"> T  </i>
   <i type="int" name="IBSE">     0</i>
   <v type="int" name="KPOINT">    -1     0     0     0</v>
   <i type="logical" name="LTCTC"> F  </i>
   <i type="logical" name="LTCTE"> F  </i>
   <i type="logical" name="LTETE"> F  </i>
   <i type="logical" name="LTRIPLET"> F  </i>
   <i type="logical" name="LFXCEPS"> F  </i>
   <i type="logical" name="LFXHEG"> F  </i>
   <i type="int" name="NATURALO">     2</i>
   <i type="logical" name="LHOLEGF"> F  </i>
   <i type="logical" name="L2ORDER"> F  </i>
   <i type="logical" name="LDMP1"> F  </i>
   <i type="logical" name="LMP2LT"> F  </i>
   <i type="logical" name="LSMP2LT"> F  </i>
   <i type="logical" name="LGWLF"> F  </i>
   <i name="ENCUTGW">     -2.00000000</i>
   <i name="ENCUTGWSOFT">     -2.00000000</i>
   <i name="ENCUTLF">     -1.00000000</i>
   <i type="logical" name="LESF_SPLINES"> F  </i>
   <i type="int" name="LMAXMP2">    -1</i>
   <i name="SCISSOR">      0.00000000</i>
   <i type="int" name="NOMEGA">     0</i>
   <i type="int" name="NOMEGAR">     0</i>
   <i type="int" name="NBANDSGW">    -1</i>
   <i type="int" name="NBANDSO">    -1</i>
   <i type="int" name="NBANDSV">    -1</i>
   <i type="int" name="NELM">     1</i>
   <i type="int" name="NELMHF">     1</i>
   <i type="int" name="DIM">     3</i>
   <i type="int" name="IESPILON">     4</i>
   <i type="int" name="ANTIRES">     0</i>
   <i name="OMEGAMAX">    -30.00000000</i>
   <i name="OMEGAMIN">    -30.00000000</i>
   <i name="OMEGATL">   -200.00000000</i>
   <i type="int" name="OMEGAGRID">     0</i>
   <i name="CSHIFT">     -0.10000000</i>
   <i type="logical" name="LSELFENERGY"> F  </i>
   <i type="logical" name="LSPECTRAL"> F  </i>
   <i type="logical" name="LSPECTRALGW"> F  </i>
   <i type="logical" name="LSINGLES"> F  </i>
   <i type="logical" name="LFERMIGW"> F  </i>
   <i type="logical" name="ODDONLYGW"> F  </i>
   <i type="logical" name="EVENONLYGW"> F  </i>
   <i type="int" name="NKREDLFX">     1</i>
   <i type="int" name="NKREDLFY">     1</i>
   <i type="int" name="NKREDLFZ">     1</i>
   <i type="int" name="MAXMEM">  2800</i>
   <i type="int" name="TELESCOPE">     0</i>
   <i type="int" name="NTAUPAR">    -1</i>
   <i type="int" name="NOMEGAPAR">    -1</i>
   <i name="DAMP_NEWTON">      0.80000001</i>
   <i name="LAMBDA">      1.00000000</i>
  </separator>
  <separator name="External order field" >
   <i name="OFIELD_KAPPA">      0.00000000</i>
   <v name="OFIELD_K">      0.00000000      0.00000000      0.00000000</v>
   <i name="OFIELD_Q6_NEAR">      0.00000000</i>
   <i name="OFIELD_Q6_FAR">      0.00000000</i>
   <i name="OFIELD_A">      0.00000000</i>
  </separator>
 </parameters>
 <atominfo>
  <atoms>     250 </atoms>
  <types>       2 </types>
  <array name="atoms" >
   <dimension dim="1">ion</dimension>
   <field type="string">element</field>
   <field type="int">atomtype</field>
   <set>
    <rc><c>Ni</c><c>   1</c></rc>
    <rc><c>Ni</c><c>   1</c></rc>
    <rc><c>Ni</c><c>   1</c></rc>
    <rc><c>Ni</c><c>   1</c></rc>
    <rc><c>Ni</c><c>   1</c></rc>
    <rc><c>Ni</c><c>   1</c></rc>
    <rc><c>Ni</c><c>   1</c></rc>
    <rc><c>Ni</c><c>   1</c></rc>
    <rc><c>Ni</c><c>   1</c></rc>
    <rc><c>Ni</c><c>   1</c></rc>
    <rc><c>Ni</c><c>   1</c></rc>
    <rc><c>Ni</c><c>   1</c></rc>
    <rc><c>Ni</c><c>   1</c></rc>
    <rc><c>Ni</c><c>   1</c></rc>
    <rc><c>Ni</c><c>   1</c></rc>
    <rc><c>Ni</c><c>   1</c></rc>
    <rc><c>Ni</c><c>   1</c></rc>
    <rc><c>Ni</c><c>   1</c></rc>
    <rc><c>Ni</c><c>   1</c></rc>
    <rc><c>Ni</c><c>   1</c></rc>
    <rc><c>Ni</c><c>   1</c></rc>
    <rc><c>Ni</c><c>   1</c></rc>
    <rc><c>Ni</c><c>   1</c></rc>
    <rc><c>Ni</c><c>   1</c></rc>
    <rc><c>Ni</c><c>   1</c></rc>
    <rc><c>Ni</c><c>   1</c></rc>
    <rc><c>Ni</c><c>   1</c></rc>
    <rc><c>Ni</c><c>   1</c></rc>
    <rc><c>Ni</c><c>   1</c></rc>
    <rc><c>Ni</c><c>   1</c></rc>
    <rc><c>Ni</c><c>   1</c></rc>
    <rc><c>Ni</c><c>   1</c></rc>
    <rc><c>Ni</c><c>   1</c></rc>
    <rc><c>Ni</c><c>   1</c></rc>
    <rc><c>Ni</c><c>   1</c></rc>
    <rc><c>Ni</c><c>   1</c></rc>
    <rc><c>Ni</c><c>   1</c></rc>
    <rc><c>Ni</c><c>   1</c></rc>
    <rc><c>Ni</c><c>   1</c></rc>
    <rc><c>Ni</c><c>   1</c></rc>
    <rc><c>Ni</c><c>   1</c></rc>
    <rc><c>Ni</c><c>   1</c></rc>
    <rc><c>Ni</c><c>   1</c></rc>
    <rc><c>Ni</c><c>   1</c></rc>
    <rc><c>Ni</c><c>   1</c></rc>
    <rc><c>Ni</c><c>   1</c></rc>
    <rc><c>Ni</c><c>   1</c></rc>
    <rc><c>Ni</c><c>   1</c></rc>
    <rc><c>Ni</c><c>   1</c></rc>
    <rc><c>Ni</c><c>   1</c></rc>
    <rc><c>Ni</c><c>   1</c></rc>
    <rc><c>Ni</c><c>   1</c></rc>
    <rc><c>Ni</c><c>   1</c></rc>
    <rc><c>Ni</c><c>   1</c></rc>
    <rc><c>Ni</c><c>   1</c></rc>
    <rc><c>Ni</c><c>   1</c></rc>
    <rc><c>Ni</c><c>   1</c></rc>
    <rc><c>Ni</c><c>   1</c></rc>
    <rc><c>Ni</c><c>   1</c></rc>
    <rc><c>Ni</c><c>   1</c></rc>
    <rc><c>Ni</c><c>   1</c></rc>
    <rc><c>Ni</c><c>   1</c></rc>
    <rc><c>Ni</c><c>   1</c></rc>
    <rc><c>Ni</c><c>   1</c></rc>
    <rc><c>Ni</c><c>   1</c></rc>
    <rc><c>Ni</c><c>   1</c></rc>
    <rc><c>Ni</c><c>   1</c></rc>
    <rc><c>Ni</c><c>   1</c></rc>
    <rc><c>Ni</c><c>   1</c></rc>
    <rc><c>Ni</c><c>   1</c></rc>
    <rc><c>Ni</c><c>   1</c></rc>
    <rc><c>Ni</c><c>   1</c></rc>
    <rc><c>Ni</c><c>   1</c></rc>
    <rc><c>Ni</c><c>   1</c></rc>
    <rc><c>Ni</c><c>   1</c></rc>
    <rc><c>Ni</c><c>   1</c></rc>
    <rc><c>Ni</c><c>   1</c></rc>
    <rc><c>Ni</c><c>   1</c></rc>
    <rc><c>Ni</c><c>   1</c></rc>
    <rc><c>Ni</c><c>   1</c></rc>
    <rc><c>Ni</c><c>   1</c></rc>
    <rc><c>Ni</c><c>   1</c></rc>
    <rc><c>Ni</c><c>   1</c></rc>
    <rc><c>Ni</c><c>   1</c></rc>
    <rc><c>Ni</c><c>   1</c></rc>
    <rc><c>Ni</c><c>   1</c></rc>
    <rc><c>Ni</c><c>   1</c></rc>
    <rc><c>Ni</c><c>   1</c></rc>
    <rc><c>Ni</c><c>   1</c></rc>
    <rc><c>Ni</c><c>   1</c></rc>
    <rc><c>Ni</c><c>   1</c></rc>
    <rc><c>Ni</c><c>   1</c></rc>
    <rc><c>Ni</c><c>   1</c></rc>
    <rc><c>Ni</c><c>   1</c></rc>
    <rc><c>Ni</c><c>   1</c></rc>
    <rc><c>Ni</c><c>   1</c></rc>
    <rc><c>Ni</c><c>   1</c></rc>
    <rc><c>Ni</c><c>   1</c></rc>
    <rc><c>Ni</c><c>   1</c></rc>
    <rc><c>Ni</c><c>   1</c></rc>
    <rc><c>Ni</c><c>   1</c></rc>
    <rc><c>Ni</c><c>   1</c></rc>
    <rc><c>Ni</c><c>   1</c></rc>
    <rc><c>Ni</c><c>   1</c></rc>
    <rc><c>Ni</c><c>   1</c></rc>
    <rc><c>Ni</c><c>   1</c></rc>
    <rc><c>Ni</c><c>   1</c></rc>
    <rc><c>Ni</c><c>   1</c></rc>
    <rc><c>Ni</c><c>   1</c></rc>
    <rc><c>Ni</c><c>   1</c></rc>
    <rc><c>Ni</c><c>   1</c></rc>
    <rc><c>Ni</c><c>   1</c></rc>
    <rc><c>Ni</c><c>   1</c></rc>
    <rc><c>Ni</c><c>   1</c></rc>
    <rc><c>Ni</c><c>   1</c></rc>
    <rc><c>Ni</c><c>   1</c></rc>
    <rc><c>Ni</c><c>   1</c></rc>
    <rc><c>Ni</c><c>   1</c></rc>
    <rc><c>Ni</c><c>   1</c></rc>
    <rc><c>Ni</c><c>   1</c></rc>
    <rc><c>Ni</c><c>   1</c></rc>
    <rc><c>Ni</c><c>   1</c></rc>
    <rc><c>Ni</c><c>   1</c></rc>
    <rc><c>Ni</c><c>   1</c></rc>
    <rc><c>Ni</c><c>   1</c></rc>
    <rc><c>O </c><c>   2</c></rc>
    <rc><c>O </c><c>   2</c></rc>
    <rc><c>O </c><c>   2</c></rc>
    <rc><c>O </c><c>   2</c></rc>
    <rc><c>O </c><c>   2</c></rc>
    <rc><c>O </c><c>   2</c></rc>
    <rc><c>O </c><c>   2</c></rc>
    <rc><c>O </c><c>   2</c></rc>
    <rc><c>O </c><c>   2</c></rc>
    <rc><c>O </c><c>   2</c></rc>
    <rc><c>O </c><c>   2</c></rc>
    <rc><c>O </c><c>   2</c></rc>
    <rc><c>O </c><c>   2</c></rc>
    <rc><c>O </c><c>   2</c></rc>
    <rc><c>O </c><c>   2</c></rc>
    <rc><c>O </c><c>   2</c></rc>
    <rc><c>O </c><c>   2</c></rc>
    <rc><c>O </c><c>   2</c></rc>
    <rc><c>O </c><c>   2</c></rc>
    <rc><c>O </c><c>   2</c></rc>
    <rc><c>O </c><c>   2</c></rc>
    <rc><c>O </c><c>   2</c></rc>
    <rc><c>O </c><c>   2</c></rc>
    <rc><c>O </c><c>   2</c></rc>
    <rc><c>O </c><c>   2</c></rc>
    <rc><c>O </c><c>   2</c></rc>
    <rc><c>O </c><c>   2</c></rc>
    <rc><c>O </c><c>   2</c></rc>
    <rc><c>O </c><c>   2</c></rc>
    <rc><c>O </c><c>   2</c></rc>
    <rc><c>O </c><c>   2</c></rc>
    <rc><c>O </c><c>   2</c></rc>
    <rc><c>O </c><c>   2</c></rc>
    <rc><c>O </c><c>   2</c></rc>
    <rc><c>O </c><c>   2</c></rc>
    <rc><c>O </c><c>   2</c></rc>
    <rc><c>O </c><c>   2</c></rc>
    <rc><c>O </c><c>   2</c></rc>
    <rc><c>O </c><c>   2</c></rc>
    <rc><c>O </c><c>   2</c></rc>
    <rc><c>O </c><c>   2</c></rc>
    <rc><c>O </c><c>   2</c></rc>
    <rc><c>O </c><c>   2</c></rc>
    <rc><c>O </c><c>   2</c></rc>
    <rc><c>O </c><c>   2</c></rc>
    <rc><c>O </c><c>   2</c></rc>
    <rc><c>O </c><c>   2</c></rc>
    <rc><c>O </c><c>   2</c></rc>
    <rc><c>O </c><c>   2</c></rc>
    <rc><c>O </c><c>   2</c></rc>
    <rc><c>O </c><c>   2</c></rc>
    <rc><c>O </c><c>   2</c></rc>
    <rc><c>O </c><c>   2</c></rc>
    <rc><c>O </c><c>   2</c></rc>
    <rc><c>O </c><c>   2</c></rc>
    <rc><c>O </c><c>   2</c></rc>
    <rc><c>O </c><c>   2</c></rc>
    <rc><c>O </c><c>   2</c></rc>
    <rc><c>O </c><c>   2</c></rc>
    <rc><c>O </c><c>   2</c></rc>
    <rc><c>O </c><c>   2</c></rc>
    <rc><c>O </c><c>   2</c></rc>
    <rc><c>O </c><c>   2</c></rc>
    <rc><c>O </c><c>   2</c></rc>
    <rc><c>O </c><c>   2</c></rc>
    <rc><c>O </c><c>   2</c></rc>
    <rc><c>O </c><c>   2</c></rc>
    <rc><c>O </c><c>   2</c></rc>
    <rc><c>O </c><c>   2</c></rc>
    <rc><c>O </c><c>   2</c></rc>
    <rc><c>O </c><c>   2</c></rc>
    <rc><c>O </c><c>   2</c></rc>
    <rc><c>O </c><c>   2</c></rc>
    <rc><c>O </c><c>   2</c></rc>
    <rc><c>O </c><c>   2</c></rc>
    <rc><c>O </c><c>   2</c></rc>
    <rc><c>O </c><c>   2</c></rc>
    <rc><c>O </c><c>   2</c></rc>
    <rc><c>O </c><c>   2</c></rc>
    <rc><c>O </c><c>   2</c></rc>
    <rc><c>O </c><c>   2</c></rc>
    <rc><c>O </c><c>   2</c></rc>
    <rc><c>O </c><c>   2</c></rc>
    <rc><c>O </c><c>   2</c></rc>
    <rc><c>O </c><c>   2</c></rc>
    <rc><c>O </c><c>   2</c></rc>
    <rc><c>O </c><c>   2</c></rc>
    <rc><c>O </c><c>   2</c></rc>
    <rc><c>O </c><c>   2</c></rc>
    <rc><c>O </c><c>   2</c></rc>
    <rc><c>O </c><c>   2</c></rc>
    <rc><c>O </c><c>   2</c></rc>
    <rc><c>O </c><c>   2</c></rc>
    <rc><c>O </c><c>   2</c></rc>
    <rc><c>O </c><c>   2</c></rc>
    <rc><c>O </c><c>   2</c></rc>
    <rc><c>O </c><c>   2</c></rc>
    <rc><c>O </c><c>   2</c></rc>
    <rc><c>O </c><c>   2</c></rc>
    <rc><c>O </c><c>   2</c></rc>
    <rc><c>O </c><c>   2</c></rc>
    <rc><c>O </c><c>   2</c></rc>
    <rc><c>O </c><c>   2</c></rc>
    <rc><c>O </c><c>   2</c></rc>
    <rc><c>O </c><c>   2</c></rc>
    <rc><c>O </c><c>   2</c></rc>
    <rc><c>O </c><c>   2</c></rc>
    <rc><c>O </c><c>   2</c></rc>
    <rc><c>O </c><c>   2</c></rc>
    <rc><c>O </c><c>   2</c></rc>
    <rc><c>O </c><c>   2</c></rc>
    <rc><c>O </c><c>   2</c></rc>
    <rc><c>O </c><c>   2</c></rc>
    <rc><c>O </c><c>   2</c></rc>
    <rc><c>O </c><c>   2</c></rc>
    <rc><c>O </c><c>   2</c></rc>
    <rc><c>O </c><c>   2</c></rc>
    <rc><c>O </c><c>   2</c></rc>
    <rc><c>O </c><c>   2</c></rc>
    <rc><c>O </c><c>   2</c></rc>
    <rc><c>O </c><c>   2</c></rc>
    <rc><c>O </c><c>   2</c></rc>
    <rc><c>O </c><c>   2</c></rc>
    <rc><c>O </c><c>   2</c></rc>
    <rc><c>O </c><c>   2</c></rc>
   </set>
  </array>
  <array name="atomtypes" >
   <dimension dim="1">type</dimension>
   <field type="int">atomspertype</field>
   <field type="string">element</field>
   <field>mass</field>
   <field>valence</field>
   <field type="string">pseudopotential</field>
   <set>
    <rc><c> 125</c><c>Ni</c><c>     58.69000000</c><c>     10.00000000</c><c>  PAW Ni_GW 31Mar2010                   </c></rc>
    <rc><c> 125</c><c>O </c><c>     16.00000000</c><c>      6.00000000</c><c>  PAW O_GW 19Mar2012                    </c></rc>
   </set>
  </array>
 </atominfo>
 <structure name="initialpos" >
  <crystal>
   <varray name="basis" >
    <v>      10.54150009       0.00000000       0.00000000 </v>
    <v>       5.27075005       9.12920687       0.00000000 </v>
    <v>       0.00000000       0.00000000      10.54150009 </v>
   </varray>
   <i name="volume">   1014.46690198 </i>
   <varray name="rec_basis" >
    <v>       0.09486316      -0.05476927       0.00000000 </v>
    <v>       0.00000000       0.10953854       0.00000000 </v>
    <v>       0.00000000       0.00000000       0.09486316 </v>
   </varray>
  </crystal>
  <varray name="positions" >
   <v>       0.00000000       0.00000000       0.00000000 </v>
   <v>       0.00000000       0.00000000       0.20000000 </v>
   <v>       0.00000000       0.00000000       0.40000001 </v>
   <v>       0.00000000       0.00000000       0.60000002 </v>
   <v>       0.00000000       0.00000000       0.80000001 </v>
   <v>       0.00000000       0.20000000       0.00000000 </v>
   <v>       0.00000000       0.20000000       0.20000000 </v>
   <v>       0.00000000       0.20000000       0.40000001 </v>
   <v>       0.00000000       0.20000000       0.60000002 </v>
   <v>       0.00000000       0.20000000       0.80000001 </v>
   <v>       0.00000000       0.40000001       0.00000000 </v>
   <v>       0.00000000       0.40000001       0.20000000 </v>
   <v>       0.00000000       0.40000001       0.40000001 </v>
   <v>       0.00000000       0.40000001       0.60000002 </v>
   <v>       0.00000000       0.40000001       0.80000001 </v>
   <v>       0.00000000       0.60000002       0.00000000 </v>
   <v>       0.00000000       0.60000002       0.20000000 </v>
   <v>       0.00000000       0.60000002       0.40000001 </v>
   <v>       0.00000000       0.60000002       0.60000002 </v>
   <v>       0.00000000       0.60000002       0.80000001 </v>
   <v>       0.00000000       0.80000001       0.00000000 </v>
   <v>       0.00000000       0.80000001       0.20000000 </v>
   <v>       0.00000000       0.80000001       0.40000001 </v>
   <v>       0.00000000       0.80000001       0.60000002 </v>
   <v>       0.00000000       0.80000001       0.80000001 </v>
   <v>       0.20000000       0.00000000       0.00000000 </v>
   <v>       0.20000000       0.00000000       0.20000000 </v>
   <v>       0.20000000       0.00000000       0.40000001 </v>
   <v>       0.20000000       0.00000000       0.60000002 </v>
   <v>       0.20000000       0.00000000       0.80000001 </v>
   <v>       0.20000000       0.20000000       0.00000000 </v>
   <v>       0.20000000       0.20000000       0.20000000 </v>
   <v>       0.20000000       0.20000000       0.40000001 </v>
   <v>       0.20000000       0.20000000       0.60000002 </v>
   <v>       0.20000000       0.20000000       0.80000001 </v>
   <v>       0.20000000       0.40000001       0.00000000 </v>
   <v>       0.20000000       0.40000001       0.20000000 </v>
   <v>       0.20000000       0.40000001       0.40000001 </v>
   <v>       0.20000000       0.40000001       0.60000002 </v>
   <v>       0.20000000       0.40000001       0.80000001 </v>
   <v>       0.20000000       0.60000002       0.00000000 </v>
   <v>       0.20000000       0.60000002       0.20000000 </v>
   <v>       0.20000000       0.60000002       0.40000001 </v>
   <v>       0.20000000       0.60000002       0.60000002 </v>
   <v>       0.20000000       0.60000002       0.80000001 </v>
   <v>       0.20000000       0.80000001       0.00000000 </v>
   <v>       0.20000000       0.80000001       0.20000000 </v>
   <v>       0.20000000       0.80000001       0.40000001 </v>
   <v>       0.20000000       0.80000001       0.60000002 </v>
   <v>       0.20000000       0.80000001       0.80000001 </v>
   <v>       0.40000001       0.00000000       0.00000000 </v>
   <v>       0.40000001       0.00000000       0.20000000 </v>
   <v>       0.40000001       0.00000000       0.40000001 </v>
   <v>       0.40000001       0.00000000       0.60000002 </v>
   <v>       0.40000001       0.00000000       0.80000001 </v>
   <v>       0.40000001       0.20000000       0.00000000 </v>
   <v>       0.40000001       0.20000000       0.20000000 </v>
   <v>       0.40000001       0.20000000       0.40000001 </v>
   <v>       0.40000001       0.20000000       0.60000002 </v>
   <v>       0.40000001       0.20000000       0.80000001 </v>
   <v>       0.40000001       0.40000001       0.00000000 </v>
   <v>       0.40000001       0.40000001       0.20000000 </v>
   <v>       0.40000001       0.40000001       0.40000001 </v>
   <v>       0.40000001       0.40000001       0.60000002 </v>
   <v>       0.40000001       0.40000001       0.80000001 </v>
   <v>       0.40000001       0.60000002       0.00000000 </v>
   <v>       0.40000001       0.60000002       0.20000000 </v>
   <v>       0.40000001       0.60000002       0.40000001 </v>
   <v>       0.40000001       0.60000002       0.60000002 </v>
   <v>       0.40000001       0.60000002       0.80000001 </v>
   <v>       0.40000001       0.80000001       0.00000000 </v>
   <v>       0.40000001       0.80000001       0.20000000 </v>
   <v>       0.40000001       0.80000001       0.40000001 </v>
   <v>       0.40000001       0.80000001       0.60000002 </v>
   <v>       0.40000001       0.80000001       0.80000001 </v>
   <v>       0.60000002       0.00000000       0.00000000 </v>
   <v>       0.60000002       0.00000000       0.20000000 </v>
   <v>       0.60000002       0.00000000       0.40000001 </v>
   <v>       0.60000002       0.00000000       0.60000002 </v>
   <v>       0.60000002       0.00000000       0.80000001 </v>
   <v>       0.60000002       0.20000000       0.00000000 </v>
   <v>       0.60000002       0.20000000       0.20000000 </v>
   <v>       0.60000002       0.20000000       0.40000001 </v>
   <v>       0.60000002       0.20000000       0.60000002 </v>
   <v>       0.60000002       0.20000000       0.80000001 </v>
   <v>       0.60000002       0.40000001       0.00000000 </v>
   <v>       0.60000002       0.40000001       0.20000000 </v>
   <v>       0.60000002       0.40000001       0.40000001 </v>
   <v>       0.60000002       0.40000001       0.60000002 </v>
   <v>       0.60000002       0.40000001       0.80000001 </v>
   <v>       0.60000002       0.60000002       0.00000000 </v>
   <v>       0.60000002       0.60000002       0.20000000 </v>
   <v>       0.60000002       0.60000002       0.40000001 </v>
   <v>       0.60000002       0.60000002       0.60000002 </v>
   <v>       0.60000002       0.60000002       0.80000001 </v>
   <v>       0.60000002       0.80000001       0.00000000 </v>
   <v>       0.60000002       0.80000001       0.20000000 </v>
   <v>       0.60000002       0.80000001       0.40000001 </v>
   <v>       0.60000002       0.80000001       0.60000002 </v>
   <v>       0.60000002       0.80000001       0.80000001 </v>
   <v>       0.80000001       0.00000000       0.00000000 </v>
   <v>       0.80000001       0.00000000       0.20000000 </v>
   <v>       0.80000001       0.00000000       0.40000001 </v>
   <v>       0.80000001       0.00000000       0.60000002 </v>
   <v>       0.80000001       0.00000000       0.80000001 </v>
   <v>       0.80000001       0.20000000       0.00000000 </v>
   <v>       0.80000001       0.20000000       0.20000000 </v>
   <v>       0.80000001       0.20000000       0.40000001 </v>
   <v>       0.80000001       0.20000000       0.60000002 </v>
   <v>       0.80000001       0.20000000       0.80000001 </v>
   <v>       0.80000001       0.40000001       0.00000000 </v>
   <v>       0.80000001       0.40000001       0.20000000 </v>
   <v>       0.80000001       0.40000001       0.40000001 </v>
   <v>       0.80000001       0.40000001       0.60000002 </v>
   <v>       0.80000001       0.40000001       0.80000001 </v>
   <v>       0.80000001       0.60000002       0.00000000 </v>
   <v>       0.80000001       0.60000002       0.20000000 </v>
   <v>       0.80000001       0.60000002       0.40000001 </v>
   <v>       0.80000001       0.60000002       0.60000002 </v>
   <v>       0.80000001       0.60000002       0.80000001 </v>
   <v>       0.80000001       0.80000001       0.00000000 </v>
   <v>       0.80000001       0.80000001       0.20000000 </v>
   <v>       0.80000001       0.80000001       0.40000001 </v>
   <v>       0.80000001       0.80000001       0.60000002 </v>
   <v>       0.80000001       0.80000001       0.80000001 </v>
   <v>       0.10000000       0.10000000       0.10000000 </v>
   <v>       0.10000000       0.10000000       0.30000001 </v>
   <v>       0.10000000       0.10000000       0.50000000 </v>
   <v>       0.10000000       0.10000000       0.69999999 </v>
   <v>       0.10000000       0.10000000       0.89999998 </v>
   <v>       0.10000000       0.30000001       0.10000000 </v>
   <v>       0.10000000       0.30000001       0.30000001 </v>
   <v>       0.10000000       0.30000001       0.50000000 </v>
   <v>       0.10000000       0.30000001       0.69999999 </v>
   <v>       0.10000000       0.30000001       0.89999998 </v>
   <v>       0.10000000       0.50000000       0.10000000 </v>
   <v>       0.10000000       0.50000000       0.30000001 </v>
   <v>       0.10000000       0.50000000       0.50000000 </v>
   <v>       0.10000000       0.50000000       0.69999999 </v>
   <v>       0.10000000       0.50000000       0.89999998 </v>
   <v>       0.10000000       0.69999999       0.10000000 </v>
   <v>       0.10000000       0.69999999       0.30000001 </v>
   <v>       0.10000000       0.69999999       0.50000000 </v>
   <v>       0.10000000       0.69999999       0.69999999 </v>
   <v>       0.10000000       0.69999999       0.89999998 </v>
   <v>       0.10000000       0.89999998       0.10000000 </v>
   <v>       0.10000000       0.89999998       0.30000001 </v>
   <v>       0.10000000       0.89999998       0.50000000 </v>
   <v>       0.10000000       0.89999998       0.69999999 </v>
   <v>       0.10000000       0.89999998       0.89999998 </v>
   <v>       0.30000001       0.10000000       0.10000000 </v>
   <v>       0.30000001       0.10000000       0.30000001 </v>
   <v>       0.30000001       0.10000000       0.50000000 </v>
   <v>       0.30000001       0.10000000       0.69999999 </v>
   <v>       0.30000001       0.10000000       0.89999998 </v>
   <v>       0.30000001       0.30000001       0.10000000 </v>
   <v>       0.30000001       0.30000001       0.30000001 </v>
   <v>       0.30000001       0.30000001       0.50000000 </v>
   <v>       0.30000001       0.30000001       0.69999999 </v>
   <v>       0.30000001       0.30000001       0.89999998 </v>
   <v>       0.30000001       0.50000000       0.10000000 </v>
   <v>       0.30000001       0.50000000       0.30000001 </v>
   <v>       0.30000001       0.50000000       0.50000000 </v>
   <v>       0.30000001       0.50000000       0.69999999 </v>
   <v>       0.30000001       0.50000000       0.89999998 </v>
   <v>       0.30000001       0.69999999       0.10000000 </v>
   <v>       0.30000001       0.69999999       0.30000001 </v>
   <v>       0.30000001       0.69999999       0.50000000 </v>
   <v>       0.30000001       0.69999999       0.69999999 </v>
   <v>       0.30000001       0.69999999       0.89999998 </v>
   <v>       0.30000001       0.89999998       0.10000000 </v>
   <v>       0.30000001       0.89999998       0.30000001 </v>
   <v>       0.30000001       0.89999998       0.50000000 </v>
   <v>       0.30000001       0.89999998       0.69999999 </v>
   <v>       0.30000001       0.89999998       0.89999998 </v>
   <v>       0.50000000       0.10000000       0.10000000 </v>
   <v>       0.50000000       0.10000000       0.30000001 </v>
   <v>       0.50000000       0.10000000       0.50000000 </v>
   <v>       0.50000000       0.10000000       0.69999999 </v>
   <v>       0.50000000       0.10000000       0.89999998 </v>
   <v>       0.50000000       0.30000001       0.10000000 </v>
   <v>       0.50000000       0.30000001       0.30000001 </v>
   <v>       0.50000000       0.30000001       0.50000000 </v>
   <v>       0.50000000       0.30000001       0.69999999 </v>
   <v>       0.50000000       0.30000001       0.89999998 </v>
   <v>       0.50000000       0.50000000       0.10000000 </v>
   <v>       0.50000000       0.50000000       0.30000001 </v>
   <v>       0.50000000       0.50000000       0.50000000 </v>
   <v>       0.50000000       0.50000000       0.69999999 </v>
   <v>       0.50000000       0.50000000       0.89999998 </v>
   <v>       0.50000000       0.69999999       0.10000000 </v>
   <v>       0.50000000       0.69999999       0.30000001 </v>
   <v>       0.50000000       0.69999999       0.50000000 </v>
   <v>       0.50000000       0.69999999       0.69999999 </v>
   <v>       0.50000000       0.69999999       0.89999998 </v>
   <v>       0.50000000       0.89999998       0.10000000 </v>
   <v>       0.50000000       0.89999998       0.30000001 </v>
   <v>       0.50000000       0.89999998       0.50000000 </v>
   <v>       0.50000000       0.89999998       0.69999999 </v>
   <v>       0.50000000       0.89999998       0.89999998 </v>
   <v>       0.69999999       0.10000000       0.10000000 </v>
   <v>       0.69999999       0.10000000       0.30000001 </v>
   <v>       0.69999999       0.10000000       0.50000000 </v>
   <v>       0.69999999       0.10000000       0.69999999 </v>
   <v>       0.69999999       0.10000000       0.89999998 </v>
   <v>       0.69999999       0.30000001       0.10000000 </v>
   <v>       0.69999999       0.30000001       0.30000001 </v>
   <v>       0.69999999       0.30000001       0.50000000 </v>
   <v>       0.69999999       0.30000001       0.69999999 </v>
   <v>       0.69999999       0.30000001       0.89999998 </v>
   <v>       0.69999999       0.50000000       0.10000000 </v>
   <v>       0.69999999       0.50000000       0.30000001 </v>
   <v>       0.69999999       0.50000000       0.50000000 </v>
   <v>       0.69999999       0.50000000       0.69999999 </v>
   <v>       0.69999999       0.50000000       0.89999998 </v>
   <v>       0.69999999       0.69999999       0.10000000 </v>
   <v>       0.69999999       0.69999999       0.30000001 </v>
   <v>       0.69999999       0.69999999       0.50000000 </v>
   <v>       0.69999999       0.69999999       0.69999999 </v>
   <v>       0.69999999       0.69999999       0.89999998 </v>
   <v>       0.69999999       0.89999998       0.10000000 </v>
   <v>       0.69999999       0.89999998       0.30000001 </v>
   <v>       0.69999999       0.89999998       0.50000000 </v>
   <v>       0.69999999       0.89999998       0.69999999 </v>
   <v>       0.69999999       0.89999998       0.89999998 </v>
   <v>       0.89999998       0.10000000       0.10000000 </v>
   <v>       0.89999998       0.10000000       0.30000001 </v>
   <v>       0.89999998       0.10000000       0.50000000 </v>
   <v>       0.89999998       0.10000000       0.69999999 </v>
   <v>       0.89999998       0.10000000       0.89999998 </v>
   <v>       0.89999998       0.30000001       0.10000000 </v>
   <v>       0.89999998       0.30000001       0.30000001 </v>
   <v>       0.89999998       0.30000001       0.50000000 </v>
   <v>       0.89999998       0.30000001       0.69999999 </v>
   <v>       0.89999998       0.30000001       0.89999998 </v>
   <v>       0.89999998       0.50000000       0.10000000 </v>
   <v>       0.89999998       0.50000000       0.30000001 </v>
   <v>       0.89999998       0.50000000       0.50000000 </v>
   <v>       0.89999998       0.50000000       0.69999999 </v>
   <v>       0.89999998       0.50000000       0.89999998 </v>
   <v>       0.89999998       0.69999999       0.10000000 </v>
   <v>       0.89999998       0.69999999       0.30000001 </v>
   <v>       0.89999998       0.69999999       0.50000000 </v>
   <v>       0.89999998       0.69999999       0.69999999 </v>
   <v>       0.89999998       0.69999999       0.89999998 </v>
   <v>       0.89999998       0.89999998       0.10000000 </v>
   <v>       0.89999998       0.89999998       0.30000001 </v>
   <v>       0.89999998       0.89999998       0.50000000 </v>
   <v>       0.89999998       0.89999998       0.69999999 </v>
   <v>       0.89999998       0.89999998       0.89999998 </v>
  </varray>
 </structure>
 <calculation>
  <scstep>
   <time name="dav">   20.13   20.14</time>
   <time name="total">   20.59   20.59</time>
   <energy>
    <i name="alphaZ">  29463.74045492 </i>
    <i name="ewald">-210353.41518332 </i>
    <i name="hartreedc"> -20872.97033764 </i>
    <i name="XCdc">   5550.17126587 </i>
    <i name="pawpsdc"> 162665.39147911 </i>
    <i name="pawaedc">-172267.95055365 </i>
    <i name="eentropy">     -0.02989089 </i>
    <i name="bandstr">  49140.62615807 </i>
    <i name="atom"> 188700.74019153 </i>
    <i name="e_fr_energy">  32026.30358400 </i>
    <i name="e_wo_entrp">  32026.33347489 </i>
    <i name="e_0_energy">  32026.31852945 </i>
   </energy>
  </scstep>
  <scstep>
   <time name="dav">   19.93   19.93</time>
   <time name="total">   19.93   19.94</time>
   <energy>
    <i name="e_fr_energy">   5593.60623125 </i>
    <i name="e_wo_entrp">   5593.66452067 </i>
    <i name="e_0_energy">   5593.63537596 </i>
   </energy>
  </scstep>
  <scstep>
   <time name="dav">   20.86   20.87</time>
   <time name="total">   20.87   20.87</time>
   <energy>
    <i name="e_fr_energy">    684.68866428 </i>
    <i name="e_wo_entrp">    684.77377569 </i>
    <i name="e_0_energy">    684.73121999 </i>
   </energy>
  </scstep>
  <scstep>
   <time name="dav">   26.54   26.55</time>
   <time name="total">   26.55   26.55</time>
   <energy>
    <i name="e_fr_energy">    224.97613255 </i>
    <i name="e_wo_entrp">    225.04927937 </i>
    <i name="e_0_energy">    225.01270596 </i>
   </energy>
  </scstep>
  <scstep>
   <time name="dav">   27.07   27.07</time>
   <time name="total">   28.03   28.04</time>
   <energy>
    <i name="e_fr_energy">    209.43922821 </i>
    <i name="e_wo_entrp">    209.51071912 </i>
    <i name="e_0_energy">    209.47497367 </i>
   </energy>
  </scstep>
  <scstep>
   <time name="dav">   27.38   27.38</time>
   <time name="total">   28.79   28.80</time>
   <energy>
    <i name="e_fr_energy">    613.45492501 </i>
    <i name="e_wo_entrp">    613.53689665 </i>
    <i name="e_0_energy">    613.49591083 </i>
   </energy>
  </scstep>
  <scstep>
   <time name="dav">   20.67   20.67</time>
   <time name="total">   22.07   22.07</time>
   <energy>
    <i name="e_fr_energy">    648.08095214 </i>
    <i name="e_wo_entrp">    648.13198235 </i>
    <i name="e_0_energy">    648.10646725 </i>
   </energy>
  </scstep>
  <scstep>
   <time name="dav">   21.17   21.17</time>
   <time name="total">   22.57   22.58</time>
   <energy>
    <i name="e_fr_energy">    677.04791915 </i>
    <i name="e_wo_entrp">    677.11998215 </i>
    <i name="e_0_energy">    677.08395065 </i>
   </energy>
  </scstep>
  <scstep>
   <time name="dav">   23.20   23.21</time>
   <time name="total">   24.63   24.63</time>
   <energy>
    <i name="e_fr_energy">    682.38616000 </i>
    <i name="e_wo_entrp">    682.45176679 </i>
    <i name="e_0_energy">    682.41896339 </i>
   </energy>
  </scstep>
  <scstep>
   <time name="dav">   25.67   25.67</time>
   <time name="total">   27.09   27.10</time>
   <energy>
    <i name="e_fr_energy">    682.61392516 </i>
    <i name="e_wo_entrp">    682.68053745 </i>
    <i name="e_0_energy">    682.64723130 </i>
   </energy>
  </scstep>
  <scstep>
   <time name="dav">   22.05   22.06</time>
   <time name="total">   23.45   23.46</time>
   <energy>
    <i name="e_fr_energy">    682.56259976 </i>
    <i name="e_wo_entrp">    682.62843182 </i>
    <i name="e_0_energy">    682.59551579 </i>
   </energy>
  </scstep>
  <scstep>
   <time name="dav">   26.59   26.60</time>
   <time name="total">   28.01   28.01</time>
   <energy>
    <i name="e_fr_energy">    682.62222304 </i>
    <i name="e_wo_entrp">    682.68869678 </i>
    <i name="e_0_energy">    682.65545991 </i>
   </energy>
  </scstep>
  <scstep>
   <time name="dav">   21.18   21.18</time>
   <time name="total">   22.59   22.60</time>
   <energy>
    <i name="e_fr_energy">    682.62397034 </i>
    <i name="e_wo_entrp">    682.69021057 </i>
    <i name="e_0_energy">    682.65709045 </i>
   </energy>
  </scstep>
  <scstep>
   <time name="dav">   27.10   27.11</time>
   <time name="total">   28.52   28.53</time>
   <energy>
    <i name="e_fr_energy">    682.62278680 </i>
    <i name="e_wo_entrp">    682.68906654 </i>
    <i name="e_0_energy">    682.65592667 </i>
   </energy>
  </scstep>
  <scstep>
   <time name="dav">   25.55   25.56</time>
   <time name="total">   26.96   26.97</time>
   <energy>
    <i name="e_fr_energy">    682.62366782 </i>
    <i name="e_wo_entrp">    682.69006422 </i>
    <i name="e_0_energy">    682.65686602 </i>
   </energy>
  </scstep>
  <scstep>
   <time name="dav">   26.63   26.64</time>
   <time name="total">   28.06   28.07</time>
   <energy>
    <i name="e_fr_energy">    682.62365277 </i>
    <i name="e_wo_entrp">    682.69011038 </i>
    <i name="e_0_energy">    682.65688157 </i>
   </energy>
  </scstep>
  <scstep>
   <time name="dav">   20.13   20.14</time>
   <time name="total">   21.58   21.58</time>
   <energy>
    <i name="e_fr_energy">    682.62364940 </i>
    <i name="e_wo_entrp">    682.69011070 </i>
    <i name="e_0_energy">    682.65688005 </i>
   </energy>
  </scstep>
  <scstep>
   <time name="dav">   13.92   13.92</time>
   <time name="total">   15.34   15.35</time>
   <energy>
    <i name="e_fr_energy">    682.62364297 </i>
    <i name="e_wo_entrp">    682.69010322 </i>
    <i name="e_0_energy">    682.65687310 </i>
   </energy>
  </scstep>
  <scstep>
   <time name="dav">   13.48   13.48</time>
   <time name="total">   13.92   13.92</time>
   <energy>
    <i name="alphaZ">  29463.74045492 </i>
    <i name="ewald">-210353.41518332 </i>
    <i name="hartreedc"> -20222.62223647 </i>
    <i name="XCdc">   5609.69706842 </i>
    <i name="pawpsdc"> 594541.83871014 </i>
    <i name="pawaedc">-606697.14825590 </i>
    <i name="eentropy">     -0.06645726 </i>
    <i name="bandstr">  19639.85935060 </i>
    <i name="atom"> 188700.74019153 </i>
    <i name="e_fr_energy">    682.62364269 </i>
    <i name="e_wo_entrp">    682.69009994 </i>
    <i name="e_0_energy">    682.65687131 </i>
   </energy>
  </scstep>
  <structure>
   <crystal>
    <varray name="basis" >
     <v>      10.54150009       0.00000000       0.00000000 </v>
     <v>       5.27075005       9.12920687       0.00000000 </v>
     <v>       0.00000000       0.00000000      10.54150009 </v>
    </varray>
    <i name="volume">   1014.46690198 </i>
    <varray name="rec_basis" >
     <v>       0.09486316      -0.05476927       0.00000000 </v>
     <v>       0.00000000       0.10953854       0.00000000 </v>
     <v>       0.00000000       0.00000000       0.09486316 </v>
    </varray>
   </crystal>
   <varray name="positions" >
    <v>       0.00000000       0.00000000       0.00000000 </v>
    <v>       0.00000000       0.00000000       0.20000000 </v>
    <v>       0.00000000       0.00000000       0.40000001 </v>
    <v>       0.00000000       0.00000000       0.60000002 </v>
    <v>       0.00000000       0.00000000       0.80000001 </v>
    <v>       0.00000000       0.20000000       0.00000000 </v>
    <v>       0.00000000       0.20000000       0.20000000 </v>
    <v>       0.00000000       0.20000000       0.40000001 </v>
    <v>       0.00000000       0.20000000       0.60000002 </v>
    <v>       0.00000000       0.20000000       0.80000001 </v>
    <v>       0.00000000       0.40000001       0.00000000 </v>
    <v>       0.00000000       0.40000001       0.20000000 </v>
    <v>       0.00000000       0.40000001       0.40000001 </v>
    <v>       0.00000000       0.40000001       0.60000002 </v>
    <v>       0.00000000       0.40000001       0.80000001 </v>
    <v>       0.00000000       0.60000002       0.00000000 </v>
    <v>       0.00000000       0.60000002       0.20000000 </v>
    <v>       0.00000000       0.60000002       0.40000001 </v>
    <v>       0.00000000       0.60000002       0.60000002 </v>
    <v>       0.00000000       0.60000002       0.80000001 </v>
    <v>       0.00000000       0.80000001       0.00000000 </v>
    <v>       0.00000000       0.80000001       0.20000000 </v>
    <v>       0.00000000       0.80000001       0.40000001 </v>
    <v>       0.00000000       0.80000001       0.60000002 </v>
    <v>       0.00000000       0.80000001       0.80000001 </v>
    <v>       0.20000000       0.00000000       0.00000000 </v>
    <v>       0.20000000       0.00000000       0.20000000 </v>
    <v>       0.20000000       0.00000000       0.40000001 </v>
    <v>       0.20000000       0.00000000       0.60000002 </v>
    <v>       0.20000000       0.00000000       0.80000001 </v>
    <v>       0.20000000       0.20000000       0.00000000 </v>
    <v>       0.20000000       0.20000000       0.20000000 </v>
    <v>       0.20000000       0.20000000       0.40000001 </v>
    <v>       0.20000000       0.20000000       0.60000002 </v>
    <v>       0.20000000       0.20000000       0.80000001 </v>
    <v>       0.20000000       0.40000001       0.00000000 </v>
    <v>       0.20000000       0.40000001       0.20000000 </v>
    <v>       0.20000000       0.40000001       0.40000001 </v>
    <v>       0.20000000       0.40000001       0.60000002 </v>
    <v>       0.20000000       0.40000001       0.80000001 </v>
    <v>       0.20000000       0.60000002       0.00000000 </v>
    <v>       0.20000000       0.60000002       0.20000000 </v>
    <v>       0.20000000       0.60000002       0.40000001 </v>
    <v>       0.20000000       0.60000002       0.60000002 </v>
    <v>       0.20000000       0.60000002       0.80000001 </v>
    <v>       0.20000000       0.80000001       0.00000000 </v>
    <v>       0.20000000       0.80000001       0.20000000 </v>
    <v>       0.20000000       0.80000001       0.40000001 </v>
    <v>       0.20000000       0.80000001       0.60000002 </v>
    <v>       0.20000000       0.80000001       0.80000001 </v>
    <v>       0.40000001       0.00000000       0.00000000 </v>
    <v>       0.40000001       0.00000000       0.20000000 </v>
    <v>       0.40000001       0.00000000       0.40000001 </v>
    <v>       0.40000001       0.00000000       0.60000002 </v>
    <v>       0.40000001       0.00000000       0.80000001 </v>
    <v>       0.40000001       0.20000000       0.00000000 </v>
    <v>       0.40000001       0.20000000       0.20000000 </v>
    <v>       0.40000001       0.20000000       0.40000001 </v>
    <v>       0.40000001       0.20000000       0.60000002 </v>
    <v>       0.40000001       0.20000000       0.80000001 </v>
    <v>       0.40000001       0.40000001       0.00000000 </v>
    <v>       0.40000001       0.40000001       0.20000000 </v>
    <v>       0.40000001       0.40000001       0.40000001 </v>
    <v>       0.40000001       0.40000001       0.60000002 </v>
    <v>       0.40000001       0.40000001       0.80000001 </v>
    <v>       0.40000001       0.60000002       0.00000000 </v>
    <v>       0.40000001       0.60000002       0.20000000 </v>
    <v>       0.40000001       0.60000002       0.40000001 </v>
    <v>       0.40000001       0.60000002       0.60000002 </v>
    <v>       0.40000001       0.60000002       0.80000001 </v>
    <v>       0.40000001       0.80000001       0.00000000 </v>
    <v>       0.40000001       0.80000001       0.20000000 </v>
    <v>       0.40000001       0.80000001       0.40000001 </v>
    <v>       0.40000001       0.80000001       0.60000002 </v>
    <v>       0.40000001       0.80000001       0.80000001 </v>
    <v>       0.60000002       0.00000000       0.00000000 </v>
    <v>       0.60000002       0.00000000       0.20000000 </v>
    <v>       0.60000002       0.00000000       0.40000001 </v>
    <v>       0.60000002       0.00000000       0.60000002 </v>
    <v>       0.60000002       0.00000000       0.80000001 </v>
    <v>       0.60000002       0.20000000       0.00000000 </v>
    <v>       0.60000002       0.20000000       0.20000000 </v>
    <v>       0.60000002       0.20000000       0.40000001 </v>
    <v>       0.60000002       0.20000000       0.60000002 </v>
    <v>       0.60000002       0.20000000       0.80000001 </v>
    <v>       0.60000002       0.40000001       0.00000000 </v>
    <v>       0.60000002       0.40000001       0.20000000 </v>
    <v>       0.60000002       0.40000001       0.40000001 </v>
    <v>       0.60000002       0.40000001       0.60000002 </v>
    <v>       0.60000002       0.40000001       0.80000001 </v>
    <v>       0.60000002       0.60000002       0.00000000 </v>
    <v>       0.60000002       0.60000002       0.20000000 </v>
    <v>       0.60000002       0.60000002       0.40000001 </v>
    <v>       0.60000002       0.60000002       0.60000002 </v>
    <v>       0.60000002       0.60000002       0.80000001 </v>
    <v>       0.60000002       0.80000001       0.00000000 </v>
    <v>       0.60000002       0.80000001       0.20000000 </v>
    <v>       0.60000002       0.80000001       0.40000001 </v>
    <v>       0.60000002       0.80000001       0.60000002 </v>
    <v>       0.60000002       0.80000001       0.80000001 </v>
    <v>       0.80000001       0.00000000       0.00000000 </v>
    <v>       0.80000001       0.00000000       0.20000000 </v>
    <v>       0.80000001       0.00000000       0.40000001 </v>
    <v>       0.80000001       0.00000000       0.60000002 </v>
    <v>       0.80000001       0.00000000       0.80000001 </v>
    <v>       0.80000001       0.20000000       0.00000000 </v>
    <v>       0.80000001       0.20000000       0.20000000 </v>
    <v>       0.80000001       0.20000000       0.40000001 </v>
    <v>       0.80000001       0.20000000       0.60000002 </v>
    <v>       0.80000001       0.20000000       0.80000001 </v>
    <v>       0.80000001       0.40000001       0.00000000 </v>
    <v>       0.80000001       0.40000001       0.20000000 </v>
    <v>       0.80000001       0.40000001       0.40000001 </v>
    <v>       0.80000001       0.40000001       0.60000002 </v>
    <v>       0.80000001       0.40000001       0.80000001 </v>
    <v>       0.80000001       0.60000002       0.00000000 </v>
    <v>       0.80000001       0.60000002       0.20000000 </v>
    <v>       0.80000001       0.60000002       0.40000001 </v>
    <v>       0.80000001       0.60000002       0.60000002 </v>
    <v>       0.80000001       0.60000002       0.80000001 </v>
    <v>       0.80000001       0.80000001       0.00000000 </v>
    <v>       0.80000001       0.80000001       0.20000000 </v>
    <v>       0.80000001       0.80000001       0.40000001 </v>
    <v>       0.80000001       0.80000001       0.60000002 </v>
    <v>       0.80000001       0.80000001       0.80000001 </v>
    <v>       0.10000000       0.10000000       0.10000000 </v>
    <v>       0.10000000       0.10000000       0.30000001 </v>
    <v>       0.10000000       0.10000000       0.50000000 </v>
    <v>       0.10000000       0.10000000       0.69999999 </v>
    <v>       0.10000000       0.10000000       0.89999998 </v>
    <v>       0.10000000       0.30000001       0.10000000 </v>
    <v>       0.10000000       0.30000001       0.30000001 </v>
    <v>       0.10000000       0.30000001       0.50000000 </v>
    <v>       0.10000000       0.30000001       0.69999999 </v>
    <v>       0.10000000       0.30000001       0.89999998 </v>
    <v>       0.10000000       0.50000000       0.10000000 </v>
    <v>       0.10000000       0.50000000       0.30000001 </v>
    <v>       0.10000000       0.50000000       0.50000000 </v>
    <v>       0.10000000       0.50000000       0.69999999 </v>
    <v>       0.10000000       0.50000000       0.89999998 </v>
    <v>       0.10000000       0.69999999       0.10000000 </v>
    <v>       0.10000000       0.69999999       0.30000001 </v>
    <v>       0.10000000       0.69999999       0.50000000 </v>
    <v>       0.10000000       0.69999999       0.69999999 </v>
    <v>       0.10000000       0.69999999       0.89999998 </v>
    <v>       0.10000000       0.89999998       0.10000000 </v>
    <v>       0.10000000       0.89999998       0.30000001 </v>
    <v>       0.10000000       0.89999998       0.50000000 </v>
    <v>       0.10000000       0.89999998       0.69999999 </v>
    <v>       0.10000000       0.89999998       0.89999998 </v>
    <v>       0.30000001       0.10000000       0.10000000 </v>
    <v>       0.30000001       0.10000000       0.30000001 </v>
    <v>       0.30000001       0.10000000       0.50000000 </v>
    <v>       0.30000001       0.10000000       0.69999999 </v>
    <v>       0.30000001       0.10000000       0.89999998 </v>
    <v>       0.30000001       0.30000001       0.10000000 </v>
    <v>       0.30000001       0.30000001       0.30000001 </v>
    <v>       0.30000001       0.30000001       0.50000000 </v>
    <v>       0.30000001       0.30000001       0.69999999 </v>
    <v>       0.30000001       0.30000001       0.89999998 </v>
    <v>       0.30000001       0.50000000       0.10000000 </v>
    <v>       0.30000001       0.50000000       0.30000001 </v>
    <v>       0.30000001       0.50000000       0.50000000 </v>
    <v>       0.30000001       0.50000000       0.69999999 </v>
    <v>       0.30000001       0.50000000       0.89999998 </v>
    <v>       0.30000001       0.69999999       0.10000000 </v>
    <v>       0.30000001       0.69999999       0.30000001 </v>
    <v>       0.30000001       0.69999999       0.50000000 </v>
    <v>       0.30000001       0.69999999       0.69999999 </v>
    <v>       0.30000001       0.69999999       0.89999998 </v>
    <v>       0.30000001       0.89999998       0.10000000 </v>
    <v>       0.30000001       0.89999998       0.30000001 </v>
    <v>       0.30000001       0.89999998       0.50000000 </v>
    <v>       0.30000001       0.89999998       0.69999999 </v>
    <v>       0.30000001       0.89999998       0.89999998 </v>
    <v>       0.50000000       0.10000000       0.10000000 </v>
    <v>       0.50000000       0.10000000       0.30000001 </v>
    <v>       0.50000000       0.10000000       0.50000000 </v>
    <v>       0.50000000       0.10000000       0.69999999 </v>
    <v>       0.50000000       0.10000000       0.89999998 </v>
    <v>       0.50000000       0.30000001       0.10000000 </v>
    <v>       0.50000000       0.30000001       0.30000001 </v>
    <v>       0.50000000       0.30000001       0.50000000 </v>
    <v>       0.50000000       0.30000001       0.69999999 </v>
    <v>       0.50000000       0.30000001       0.89999998 </v>
    <v>       0.50000000       0.50000000       0.10000000 </v>
    <v>       0.50000000       0.50000000       0.30000001 </v>
    <v>       0.50000000       0.50000000       0.50000000 </v>
    <v>       0.50000000       0.50000000       0.69999999 </v>
    <v>       0.50000000       0.50000000       0.89999998 </v>
    <v>       0.50000000       0.69999999       0.10000000 </v>
    <v>       0.50000000       0.69999999       0.30000001 </v>
    <v>       0.50000000       0.69999999       0.50000000 </v>
    <v>       0.50000000       0.69999999       0.69999999 </v>
    <v>       0.50000000       0.69999999       0.89999998 </v>
    <v>       0.50000000       0.89999998       0.10000000 </v>
    <v>       0.50000000       0.89999998       0.30000001 </v>
    <v>       0.50000000       0.89999998       0.50000000 </v>
    <v>       0.50000000       0.89999998       0.69999999 </v>
    <v>       0.50000000       0.89999998       0.89999998 </v>
    <v>       0.69999999       0.10000000       0.10000000 </v>
    <v>       0.69999999       0.10000000       0.30000001 </v>
    <v>       0.69999999       0.10000000       0.50000000 </v>
    <v>       0.69999999       0.10000000       0.69999999 </v>
    <v>       0.69999999       0.10000000       0.89999998 </v>
    <v>       0.69999999       0.30000001       0.10000000 </v>
    <v>       0.69999999       0.30000001       0.30000001 </v>
    <v>       0.69999999       0.30000001       0.50000000 </v>
    <v>       0.69999999       0.30000001       0.69999999 </v>
    <v>       0.69999999       0.30000001       0.89999998 </v>
    <v>       0.69999999       0.50000000       0.10000000 </v>
    <v>       0.69999999       0.50000000       0.30000001 </v>
    <v>       0.69999999       0.50000000       0.50000000 </v>
    <v>       0.69999999       0.50000000       0.69999999 </v>
    <v>       0.69999999       0.50000000       0.89999998 </v>
    <v>       0.69999999       0.69999999       0.10000000 </v>
    <v>       0.69999999       0.69999999       0.30000001 </v>
    <v>       0.69999999       0.69999999       0.50000000 </v>
    <v>       0.69999999       0.69999999       0.69999999 </v>
    <v>       0.69999999       0.69999999       0.89999998 </v>
    <v>       0.69999999       0.89999998       0.10000000 </v>
    <v>       0.69999999       0.89999998       0.30000001 </v>
    <v>       0.69999999       0.89999998       0.50000000 </v>
    <v>       0.69999999       0.89999998       0.69999999 </v>
    <v>       0.69999999       0.89999998       0.89999998 </v>
    <v>       0.89999998       0.10000000       0.10000000 </v>
    <v>       0.89999998       0.10000000       0.30000001 </v>
    <v>       0.89999998       0.10000000       0.50000000 </v>
    <v>       0.89999998       0.10000000       0.69999999 </v>
    <v>       0.89999998       0.10000000       0.89999998 </v>
    <v>       0.89999998       0.30000001       0.10000000 </v>
    <v>       0.89999998       0.30000001       0.30000001 </v>
    <v>       0.89999998       0.30000001       0.50000000 </v>
    <v>       0.89999998       0.30000001       0.69999999 </v>
    <v>       0.89999998       0.30000001       0.89999998 </v>
    <v>       0.89999998       0.50000000       0.10000000 </v>
    <v>       0.89999998       0.50000000       0.30000001 </v>
    <v>       0.89999998       0.50000000       0.50000000 </v>
    <v>       0.89999998       0.50000000       0.69999999 </v>
    <v>       0.89999998       0.50000000       0.89999998 </v>
    <v>       0.89999998       0.69999999       0.10000000 </v>
    <v>       0.89999998       0.69999999       0.30000001 </v>
    <v>       0.89999998       0.69999999       0.50000000 </v>
    <v>       0.89999998       0.69999999       0.69999999 </v>
    <v>       0.89999998       0.69999999       0.89999998 </v>
    <v>       0.89999998       0.89999998       0.10000000 </v>
    <v>       0.89999998       0.89999998       0.30000001 </v>
    <v>       0.89999998       0.89999998       0.50000000 </v>
    <v>       0.89999998       0.89999998       0.69999999 </v>
    <v>       0.89999998       0.89999998       0.89999998 </v>
   </varray>
  </structure>
  <varray name="forces" >
   <v>      -0.00000000       0.00000000      -0.00000000 </v>
   <v>      -0.00000000      -0.00000000      -0.00000000 </v>
   <v>       0.00000000      -0.00000000      -0.00000000 </v>
   <v>       0.00000000       0.00000000       0.00000000 </v>
   <v>      -0.00000000       0.00000000       0.00000000 </v>
   <v>      -0.00000000       0.00000000      -0.00000000 </v>
   <v>      -0.00000000       0.00000000      -0.00000000 </v>
   <v>       0.00000000      -0.00000000      -0.00000000 </v>
   <v>      -0.00000000      -0.00000000      -0.00000000 </v>
   <v>       0.00000000       0.00000000       0.00000000 </v>
   <v>      -0.00000000      -0.00000000      -0.00000000 </v>
   <v>      -0.00000000      -0.00000000      -0.00000000 </v>
   <v>       0.00000000      -0.00000000      -0.00000000 </v>
   <v>       0.00000000      -0.00000000       0.00000000 </v>
   <v>      -0.00000000      -0.00000000       0.00000000 </v>
   <v>       0.00000000       0.00000000      -0.00000000 </v>
   <v>      -0.00000000      -0.00000000      -0.00000000 </v>
   <v>      -0.00000000      -0.00000000      -0.00000000 </v>
   <v>      -0.00000000      -0.00000000      -0.00000000 </v>
   <v>      -0.00000000       0.00000000       0.00000000 </v>
   <v>      -0.00000000      -0.00000000      -0.00000000 </v>
   <v>      -0.00000000      -0.00000000      -0.00000000 </v>
   <v>       0.00000000       0.00000000      -0.00000000 </v>
   <v>      -0.00000000       0.00000000       0.00000000 </v>
   <v>      -0.00000000       0.00000000       0.00000000 </v>
   <v>       0.00000000       0.00000000      -0.00000000 </v>
   <v>       0.00000000      -0.00000000      -0.00000000 </v>
   <v>       0.00000000      -0.00000000       0.00000000 </v>
   <v>      -0.00000000       0.00000000      -0.00000000 </v>
   <v>      -0.00000000       0.00000000       0.00000000 </v>
   <v>       0.00000000      -0.00000000      -0.00000000 </v>
   <v>       0.00000000       0.00000000      -0.00000000 </v>
   <v>       0.00000000      -0.00000000      -0.00000000 </v>
   <v>      -0.00000000      -0.00000000      -0.00000000 </v>
   <v>      -0.00000000       0.00000000       0.00000000 </v>
   <v>      -0.00000000      -0.00000000      -0.00000000 </v>
   <v>      -0.00000000       0.00000000      -0.00000000 </v>
   <v>      -0.00000000       0.00000000      -0.00000000 </v>
   <v>      -0.00000000      -0.00000000      -0.00000000 </v>
   <v>      -0.00000000       0.00000000       0.00000000 </v>
   <v>      -0.00000000       0.00000000      -0.00000000 </v>
   <v>       0.00000000      -0.00000000      -0.00000000 </v>
   <v>       0.00000000      -0.00000000      -0.00000000 </v>
   <v>      -0.00000000      -0.00000000      -0.00000000 </v>
   <v>       0.00000000       0.00000000       0.00000000 </v>
   <v>      -0.00000000       0.00000000      -0.00000000 </v>
   <v>       0.00000000      -0.00000000      -0.00000000 </v>
   <v>       0.00000000      -0.00000000       0.00000000 </v>
   <v>      -0.00000000       0.00000000      -0.00000000 </v>
   <v>      -0.00000000       0.00000000       0.00000000 </v>
   <v>       0.00000000       0.00000000      -0.00000000 </v>
   <v>       0.00000000      -0.00000000      -0.00000000 </v>
   <v>      -0.00000000       0.00000000      -0.00000000 </v>
   <v>      -0.00000000       0.00000000      -0.00000000 </v>
   <v>       0.00000000       0.00000000       0.00000000 </v>
   <v>       0.00000000       0.00000000      -0.00000000 </v>
   <v>       0.00000000       0.00000000       0.00000000 </v>
   <v>      -0.00000000       0.00000000       0.00000000 </v>
   <v>      -0.00000000       0.00000000       0.00000000 </v>
   <v>      -0.00000000       0.00000000       0.00000000 </v>
   <v>      -0.00000000       0.00000000      -0.00000000 </v>
   <v>      -0.00000000      -0.00000000      -0.00000000 </v>
   <v>      -0.00000000      -0.00000000      -0.00000000 </v>
   <v>      -0.00000000       0.00000000       0.00000000 </v>
   <v>      -0.00000000       0.00000000       0.00000000 </v>
   <v>      -0.00000000       0.00000000      -0.00000000 </v>
   <v>      -0.00000000      -0.00000000      -0.00000000 </v>
   <v>      -0.00000000      -0.00000000      -0.00000000 </v>
   <v>       0.00000000      -0.00000000      -0.00000000 </v>
   <v>      -0.00000000       0.00000000       0.00000000 </v>
   <v>      -0.00000000      -0.00000000      -0.00000000 </v>
   <v>      -0.00000000       0.00000000      -0.00000000 </v>
   <v>      -0.00000000       0.00000000       0.00000000 </v>
   <v>       0.00000000       0.00000000      -0.00000000 </v>
   <v>       0.00000000       0.00000000       0.00000000 </v>
   <v>       0.00000000      -0.00000000      -0.00000000 </v>
   <v>       0.00000000      -0.00000000       0.00000000 </v>
   <v>       0.00000000      -0.00000000      -0.00000000 </v>
   <v>       0.00000000      -0.00000000       0.00000000 </v>
   <v>       0.00000000      -0.00000000       0.00000000 </v>
   <v>       0.00000000      -0.00000000      -0.00000000 </v>
   <v>       0.00000000      -0.00000000       0.00000000 </v>
   <v>       0.00000000       0.00000000      -0.00000000 </v>
   <v>       0.00000000       0.00000000       0.00000000 </v>
   <v>      -0.00000000      -0.00000000       0.00000000 </v>
   <v>       0.00000000       0.00000000      -0.00000000 </v>
   <v>       0.00000000       0.00000000      -0.00000000 </v>
   <v>      -0.00000000       0.00000000       0.00000000 </v>
   <v>      -0.00000000       0.00000000       0.00000000 </v>
   <v>      -0.00000000       0.00000000       0.00000000 </v>
   <v>       0.00000000      -0.00000000      -0.00000000 </v>
   <v>       0.00000000       0.00000000      -0.00000000 </v>
   <v>      -0.00000000       0.00000000       0.00000000 </v>
   <v>      -0.00000000       0.00000000       0.00000000 </v>
   <v>      -0.00000000      -0.00000000       0.00000000 </v>
   <v>       0.00000000       0.00000000      -0.00000000 </v>
   <v>       0.00000000       0.00000000      -0.00000000 </v>
   <v>       0.00000000       0.00000000       0.00000000 </v>
   <v>      -0.00000000       0.00000000       0.00000000 </v>
   <v>       0.00000000       0.00000000       0.00000000 </v>
   <v>       0.00000000      -0.00000000      -0.00000000 </v>
   <v>      -0.00000000       0.00000000       0.00000000 </v>
   <v>      -0.00000000       0.00000000       0.00000000 </v>
   <v>       0.00000000      -0.00000000       0.00000000 </v>
   <v>       0.00000000       0.00000000       0.00000000 </v>
   <v>       0.00000000      -0.00000000      -0.00000000 </v>
   <v>      -0.00000000      -0.00000000      -0.00000000 </v>
   <v>      -0.00000000       0.00000000       0.00000000 </v>
   <v>      -0.00000000       0.00000000       0.00000000 </v>
   <v>       0.00000000       0.00000000       0.00000000 </v>
   <v>       0.00000000       0.00000000      -0.00000000 </v>
   <v>       0.00000000       0.00000000      -0.00000000 </v>
   <v>      -0.00000000       0.00000000       0.00000000 </v>
   <v>       0.00000000       0.00000000       0.00000000 </v>
   <v>      -0.00000000       0.00000000       0.00000000 </v>
   <v>      -0.00000000      -0.00000000      -0.00000000 </v>
   <v>       0.00000000      -0.00000000       0.00000000 </v>
   <v>       0.00000000       0.00000000       0.00000000 </v>
   <v>       0.00000000       0.00000000       0.00000000 </v>
   <v>      -0.00000000       0.00000000       0.00000000 </v>
   <v>       0.00000000       0.00000000      -0.00000000 </v>
   <v>       0.00000000       0.00000000       0.00000000 </v>
   <v>      -0.00000000       0.00000000       0.00000000 </v>
   <v>      -0.00000000       0.00000000       0.00000000 </v>
   <v>       0.00000000       0.00000000       0.00000000 </v>
   <v>       0.00000000      -0.00000000       0.00000000 </v>
   <v>       0.00000000      -0.00000000      -0.00000000 </v>
   <v>      -0.00000000       0.00000000      -0.00000000 </v>
   <v>      -0.00000000      -0.00000000      -0.00000000 </v>
   <v>       0.00000000       0.00000000       0.00000000 </v>
   <v>      -0.00000000       0.00000000       0.00000000 </v>
   <v>       0.00000000      -0.00000000       0.00000000 </v>
   <v>      -0.00000000       0.00000000       0.00000000 </v>
   <v>      -0.00000000      -0.00000000      -0.00000000 </v>
   <v>      -0.00000000      -0.00000000       0.00000000 </v>
   <v>      -0.00000000       0.00000000       0.00000000 </v>
   <v>       0.00000000      -0.00000000      -0.00000000 </v>
   <v>      -0.00000000       0.00000000      -0.00000000 </v>
   <v>      -0.00000000       0.00000000      -0.00000000 </v>
   <v>       0.00000000      -0.00000000       0.00000000 </v>
   <v>       0.00000000       0.00000000       0.00000000 </v>
   <v>       0.00000000       0.00000000      -0.00000000 </v>
   <v>      -0.00000000       0.00000000      -0.00000000 </v>
   <v>      -0.00000000       0.00000000      -0.00000000 </v>
   <v>       0.00000000      -0.00000000      -0.00000000 </v>
   <v>       0.00000000      -0.00000000       0.00000000 </v>
   <v>      -0.00000000      -0.00000000       0.00000000 </v>
   <v>      -0.00000000      -0.00000000       0.00000000 </v>
   <v>      -0.00000000       0.00000000      -0.00000000 </v>
   <v>       0.00000000      -0.00000000      -0.00000000 </v>
   <v>      -0.00000000      -0.00000000       0.00000000 </v>
   <v>       0.00000000       0.00000000       0.00000000 </v>
   <v>      -0.00000000       0.00000000       0.00000000 </v>
   <v>      -0.00000000      -0.00000000      -0.00000000 </v>
   <v>      -0.00000000      -0.00000000      -0.00000000 </v>
   <v>       0.00000000       0.00000000       0.00000000 </v>
   <v>       0.00000000      -0.00000000       0.00000000 </v>
   <v>      -0.00000000       0.00000000       0.00000000 </v>
   <v>       0.00000000      -0.00000000      -0.00000000 </v>
   <v>      -0.00000000      -0.00000000      -0.00000000 </v>
   <v>       0.00000000       0.00000000       0.00000000 </v>
   <v>       0.00000000       0.00000000       0.00000000 </v>
   <v>       0.00000000      -0.00000000       0.00000000 </v>
   <v>      -0.00000000      -0.00000000      -0.00000000 </v>
   <v>      -0.00000000       0.00000000       0.00000000 </v>
   <v>       0.00000000       0.00000000       0.00000000 </v>
   <v>       0.00000000       0.00000000       0.00000000 </v>
   <v>      -0.00000000      -0.00000000      -0.00000000 </v>
   <v>      -0.00000000      -0.00000000      -0.00000000 </v>
   <v>       0.00000000       0.00000000       0.00000000 </v>
   <v>       0.00000000       0.00000000       0.00000000 </v>
   <v>       0.00000000      -0.00000000       0.00000000 </v>
   <v>      -0.00000000      -0.00000000       0.00000000 </v>
   <v>      -0.00000000      -0.00000000      -0.00000000 </v>
   <v>       0.00000000      -0.00000000      -0.00000000 </v>
   <v>       0.00000000      -0.00000000       0.00000000 </v>
   <v>       0.00000000      -0.00000000       0.00000000 </v>
   <v>      -0.00000000       0.00000000      -0.00000000 </v>
[...]
       <r>    24.0142    35.7353  2195.4010 </r>
       <r>    24.1778    39.0648  2201.7907 </r>
       <r>    24.3414     9.2752  2203.3079 </r>
       <r>    24.5049    16.6684  2206.0343 </r>
       <r>    24.6685    28.2437  2210.6541 </r>
       <r>    24.8321    31.1948  2215.7566 </r>
       <r>    24.9956    30.4404  2220.7356 </r>
       <r>    25.1592    23.6443  2224.6031 </r>
       <r>    25.3228    39.5555  2231.0731 </r>
       <r>    25.4863    28.1721  2235.6812 </r>
       <r>    25.6499    40.8652  2242.3654 </r>
       <r>    25.8135    24.9444  2246.4455 </r>
       <r>    25.9770    10.2900  2248.1287 </r>
       <r>    26.1406    11.5637  2250.0201 </r>
       <r>    26.3042    13.4292  2252.2167 </r>
       <r>    26.4678    12.1831  2254.2095 </r>
       <r>    26.6313    15.4374  2256.7345 </r>
       <r>    26.7949     3.1504  2257.2498 </r>
       <r>    26.9585     0.0010  2257.2500 </r>
       <r>    27.1220     0.0000  2257.2500 </r>
       <r>    27.2856     0.0000  2257.2500 </r>
       <r>    27.4492     4.6400  2258.0090 </r>
       <r>    27.6127    13.8243  2260.2702 </r>
       <r>    27.7763     2.9278  2260.7491 </r>
       <r>    27.9399     4.9673  2261.5616 </r>
       <r>    28.1034     7.5569  2262.7976 </r>
       <r>    28.2670    11.3247  2264.6500 </r>
       <r>    28.4306    11.0256  2266.4534 </r>
       <r>    28.5941     7.3658  2267.6582 </r>
       <r>    28.7577     6.6747  2268.7500 </r>
       <r>    28.9213     0.1479  2268.7742 </r>
       <r>    29.0848    11.8289  2270.7090 </r>
       <r>    29.2484    15.5587  2273.2539 </r>
       <r>    29.4120     9.3333  2274.7805 </r>
       <r>    29.5755    23.3196  2278.5949 </r>
       <r>    29.7391    23.1847  2282.3872 </r>
       <r>    29.9027     5.2754  2283.2501 </r>
       <r>    30.0663    14.4646  2285.6160 </r>
       <r>    30.2298    19.3588  2288.7825 </r>
       <r>    30.3934     9.4421  2290.3269 </r>
       <r>    30.5570    43.2354  2297.3989 </r>
       <r>    30.7205    16.2387  2300.0550 </r>
       <r>    30.8841    30.7673  2305.0875 </r>
       <r>    31.0477    32.5427  2310.4105 </r>
       <r>    31.2112    14.1461  2312.7244 </r>
       <r>    31.3748    42.4539  2319.6685 </r>
       <r>    31.5384    25.5408  2323.8461 </r>
       <r>    31.7019    11.7050  2325.7607 </r>
       <r>    31.8655    30.3296  2330.7217 </r>
       <r>    32.0291    42.7085  2337.7074 </r>
       <r>    32.1926    48.8861  2345.7036 </r>
       <r>    32.3562    66.0621  2356.5093 </r>
       <r>    32.5198    55.0115  2365.5074 </r>
       <r>    32.6833    54.6288  2374.4430 </r>
       <r>    32.8469    36.6430  2380.4366 </r>
       <r>    33.0105    50.2953  2388.6633 </r>
       <r>    33.1741    41.5287  2395.4561 </r>
       <r>    33.3376    24.6920  2399.4949 </r>
       <r>    33.5012     3.0854  2399.9996 </r>
       <r>    33.6648     0.0025  2400.0000 </r>
       <r>    33.8283     0.0000  2400.0000 </r>
       <r>    33.9919     0.0000  2400.0000 </r>
       <r>    34.1555     0.0000  2400.0000 </r>
       <r>    34.3190     0.0000  2400.0000 </r>
       <r>    34.4826     0.0000  2400.0000 </r>
       <r>    34.6462     0.0000  2400.0000 </r>
       <r>    34.8097     0.0000  2400.0000 </r>
       <r>    34.9733     0.0000  2400.0000 </r>
       <r>    35.1369     0.0000  2400.0000 </r>
       <r>    35.3004     0.0000  2400.0000 </r>
       <r>    35.4640     0.0000  2400.0000 </r>
       <r>    35.6276     0.0000  2400.0000 </r>
      </set>
     </set>
    </array>
   </total>
  </dos>
 </calculation>
 <structure name="finalpos" >
  <crystal>
   <varray name="basis" >
    <v>      10.54150009       0.00000000       0.00000000 </v>
    <v>       5.27075005       9.12920687       0.00000000 </v>
    <v>       0.00000000       0.00000000      10.54150009 </v>
   </varray>
   <i name="volume">   1014.46690198 </i>
   <varray name="rec_basis" >
    <v>       0.09486316      -0.05476927       0.00000000 </v>
    <v>       0.00000000       0.10953854       0.00000000 </v>
    <v>       0.00000000       0.00000000       0.09486316 </v>
   </varray>
  </crystal>
  <varray name="positions" >
   <v>       0.00000000       0.00000000       0.00000000 </v>
   <v>       0.00000000       0.00000000       0.20000000 </v>
   <v>       0.00000000       0.00000000       0.40000001 </v>
   <v>       0.00000000       0.00000000       0.60000002 </v>
   <v>       0.00000000       0.00000000       0.80000001 </v>
   <v>       0.00000000       0.20000000       0.00000000 </v>
   <v>       0.00000000       0.20000000       0.20000000 </v>
   <v>       0.00000000       0.20000000       0.40000001 </v>
   <v>       0.00000000       0.20000000       0.60000002 </v>
   <v>       0.00000000       0.20000000       0.80000001 </v>
   <v>       0.00000000       0.40000001       0.00000000 </v>
   <v>       0.00000000       0.40000001       0.20000000 </v>
   <v>       0.00000000       0.40000001       0.40000001 </v>
   <v>       0.00000000       0.40000001       0.60000002 </v>
   <v>       0.00000000       0.40000001       0.80000001 </v>
   <v>       0.00000000       0.60000002       0.00000000 </v>
   <v>       0.00000000       0.60000002       0.20000000 </v>
   <v>       0.00000000       0.60000002       0.40000001 </v>
   <v>       0.00000000       0.60000002       0.60000002 </v>
   <v>       0.00000000       0.60000002       0.80000001 </v>
   <v>       0.00000000       0.80000001       0.00000000 </v>
   <v>       0.00000000       0.80000001       0.20000000 </v>
   <v>       0.00000000       0.80000001       0.40000001 </v>
   <v>       0.00000000       0.80000001       0.60000002 </v>
   <v>       0.00000000       0.80000001       0.80000001 </v>
   <v>       0.20000000       0.00000000       0.00000000 </v>
   <v>       0.20000000       0.00000000       0.20000000 </v>
   <v>       0.20000000       0.00000000       0.40000001 </v>
   <v>       0.20000000       0.00000000       0.60000002 </v>
   <v>       0.20000000       0.00000000       0.80000001 </v>
   <v>       0.20000000       0.20000000       0.00000000 </v>
   <v>       0.20000000       0.20000000       0.20000000 </v>
   <v>       0.20000000       0.20000000       0.40000001 </v>
   <v>       0.20000000       0.20000000       0.60000002 </v>
   <v>       0.20000000       0.20000000       0.80000001 </v>
   <v>       0.20000000       0.40000001       0.00000000 </v>
   <v>       0.20000000       0.40000001       0.20000000 </v>
   <v>       0.20000000       0.40000001       0.40000001 </v>
   <v>       0.20000000       0.40000001       0.60000002 </v>
   <v>       0.20000000       0.40000001       0.80000001 </v>
   <v>       0.20000000       0.60000002       0.00000000 </v>
   <v>       0.20000000       0.60000002       0.20000000 </v>
   <v>       0.20000000       0.60000002       0.40000001 </v>
   <v>       0.20000000       0.60000002       0.60000002 </v>
   <v>       0.20000000       0.60000002       0.80000001 </v>
   <v>       0.20000000       0.80000001       0.00000000 </v>
   <v>       0.20000000       0.80000001       0.20000000 </v>
   <v>       0.20000000       0.80000001       0.40000001 </v>
   <v>       0.20000000       0.80000001       0.60000002 </v>
   <v>       0.20000000       0.80000001       0.80000001 </v>
   <v>       0.40000001       0.00000000       0.00000000 </v>
   <v>       0.40000001       0.00000000       0.20000000 </v>
   <v>       0.40000001       0.00000000       0.40000001 </v>
   <v>       0.40000001       0.00000000       0.60000002 </v>
   <v>       0.40000001       0.00000000       0.80000001 </v>
   <v>       0.40000001       0.20000000       0.00000000 </v>
   <v>       0.40000001       0.20000000       0.20000000 </v>
   <v>       0.40000001       0.20000000       0.40000001 </v>
   <v>       0.40000001       0.20000000       0.60000002 </v>
   <v>       0.40000001       0.20000000       0.80000001 </v>
   <v>       0.40000001       0.40000001       0.00000000 </v>
   <v>       0.40000001       0.40000001       0.20000000 </v>
   <v>       0.40000001       0.40000001       0.40000001 </v>
   <v>       0.40000001       0.40000001       0.60000002 </v>
   <v>       0.40000001       0.40000001       0.80000001 </v>
   <v>       0.40000001       0.60000002       0.00000000 </v>
   <v>       0.40000001       0.60000002       0.20000000 </v>
   <v>       0.40000001       0.60000002       0.40000001 </v>
   <v>       0.40000001       0.60000002       0.60000002 </v>
   <v>       0.40000001       0.60000002       0.80000001 </v>
   <v>       0.40000001       0.80000001       0.00000000 </v>
   <v>       0.40000001       0.80000001       0.20000000 </v>
   <v>       0.40000001       0.80000001       0.40000001 </v>
   <v>       0.40000001       0.80000001       0.60000002 </v>
   <v>       0.40000001       0.80000001       0.80000001 </v>
   <v>       0.60000002       0.00000000       0.00000000 </v>
   <v>       0.60000002       0.00000000       0.20000000 </v>
   <v>       0.60000002       0.00000000       0.40000001 </v>
   <v>       0.60000002       0.00000000       0.60000002 </v>
   <v>       0.60000002       0.00000000       0.80000001 </v>
   <v>       0.60000002       0.20000000       0.00000000 </v>
   <v>       0.60000002       0.20000000       0.20000000 </v>
   <v>       0.60000002       0.20000000       0.40000001 </v>
   <v>       0.60000002       0.20000000       0.60000002 </v>
   <v>       0.60000002       0.20000000       0.80000001 </v>
   <v>       0.60000002       0.40000001       0.00000000 </v>
   <v>       0.60000002       0.40000001       0.20000000 </v>
   <v>       0.60000002       0.40000001       0.40000001 </v>
   <v>       0.60000002       0.40000001       0.60000002 </v>
   <v>       0.60000002       0.40000001       0.80000001 </v>
   <v>       0.60000002       0.60000002       0.00000000 </v>
   <v>       0.60000002       0.60000002       0.20000000 </v>
   <v>       0.60000002       0.60000002       0.40000001 </v>
   <v>       0.60000002       0.60000002       0.60000002 </v>
   <v>       0.60000002       0.60000002       0.80000001 </v>
   <v>       0.60000002       0.80000001       0.00000000 </v>
   <v>       0.60000002       0.80000001       0.20000000 </v>
   <v>       0.60000002       0.80000001       0.40000001 </v>
   <v>       0.60000002       0.80000001       0.60000002 </v>
   <v>       0.60000002       0.80000001       0.80000001 </v>
   <v>       0.80000001       0.00000000       0.00000000 </v>
   <v>       0.80000001       0.00000000       0.20000000 </v>
   <v>       0.80000001       0.00000000       0.40000001 </v>
   <v>       0.80000001       0.00000000       0.60000002 </v>
   <v>       0.80000001       0.00000000       0.80000001 </v>
   <v>       0.80000001       0.20000000       0.00000000 </v>
   <v>       0.80000001       0.20000000       0.20000000 </v>
   <v>       0.80000001       0.20000000       0.40000001 </v>
   <v>       0.80000001       0.20000000       0.60000002 </v>
   <v>       0.80000001       0.20000000       0.80000001 </v>
   <v>       0.80000001       0.40000001       0.00000000 </v>
   <v>       0.80000001       0.40000001       0.20000000 </v>
   <v>       0.80000001       0.40000001       0.40000001 </v>
   <v>       0.80000001       0.40000001       0.60000002 </v>
   <v>       0.80000001       0.40000001       0.80000001 </v>
   <v>       0.80000001       0.60000002       0.00000000 </v>
   <v>       0.80000001       0.60000002       0.20000000 </v>
   <v>       0.80000001       0.60000002       0.40000001 </v>
   <v>       0.80000001       0.60000002       0.60000002 </v>
   <v>       0.80000001       0.60000002       0.80000001 </v>
   <v>       0.80000001       0.80000001       0.00000000 </v>
   <v>       0.80000001       0.80000001       0.20000000 </v>
   <v>       0.80000001       0.80000001       0.40000001 </v>
   <v>       0.80000001       0.80000001       0.60000002 </v>
   <v>       0.80000001       0.80000001       0.80000001 </v>
   <v>       0.10000000       0.10000000       0.10000000 </v>
   <v>       0.10000000       0.10000000       0.30000001 </v>
   <v>       0.10000000       0.10000000       0.50000000 </v>
   <v>       0.10000000       0.10000000       0.69999999 </v>
   <v>       0.10000000       0.10000000       0.89999998 </v>
   <v>       0.10000000       0.30000001       0.10000000 </v>
   <v>       0.10000000       0.30000001       0.30000001 </v>
   <v>       0.10000000       0.30000001       0.50000000 </v>
   <v>       0.10000000       0.30000001       0.69999999 </v>
   <v>       0.10000000       0.30000001       0.89999998 </v>
   <v>       0.10000000       0.50000000       0.10000000 </v>
   <v>       0.10000000       0.50000000       0.30000001 </v>
   <v>       0.10000000       0.50000000       0.50000000 </v>
   <v>       0.10000000       0.50000000       0.69999999 </v>
   <v>       0.10000000       0.50000000       0.89999998 </v>
   <v>       0.10000000       0.69999999       0.10000000 </v>
   <v>       0.10000000       0.69999999       0.30000001 </v>
   <v>       0.10000000       0.69999999       0.50000000 </v>
   <v>       0.10000000       0.69999999       0.69999999 </v>
   <v>       0.10000000       0.69999999       0.89999998 </v>
   <v>       0.10000000       0.89999998       0.10000000 </v>
   <v>       0.10000000       0.89999998       0.30000001 </v>
   <v>       0.10000000       0.89999998       0.50000000 </v>
   <v>       0.10000000       0.89999998       0.69999999 </v>
   <v>       0.10000000       0.89999998       0.89999998 </v>
   <v>       0.30000001       0.10000000       0.10000000 </v>
   <v>       0.30000001       0.10000000       0.30000001 </v>
   <v>       0.30000001       0.10000000       0.50000000 </v>
   <v>       0.30000001       0.10000000       0.69999999 </v>
   <v>       0.30000001       0.10000000       0.89999998 </v>
   <v>       0.30000001       0.30000001       0.10000000 </v>
   <v>       0.30000001       0.30000001       0.30000001 </v>
   <v>       0.30000001       0.30000001       0.50000000 </v>
   <v>       0.30000001       0.30000001       0.69999999 </v>
   <v>       0.30000001       0.30000001       0.89999998 </v>
   <v>       0.30000001       0.50000000       0.10000000 </v>
   <v>       0.30000001       0.50000000       0.30000001 </v>
   <v>       0.30000001       0.50000000       0.50000000 </v>
   <v>       0.30000001       0.50000000       0.69999999 </v>
   <v>       0.30000001       0.50000000       0.89999998 </v>
   <v>       0.30000001       0.69999999       0.10000000 </v>
   <v>       0.30000001       0.69999999       0.30000001 </v>
   <v>       0.30000001       0.69999999       0.50000000 </v>
   <v>       0.30000001       0.69999999       0.69999999 </v>
   <v>       0.30000001       0.69999999       0.89999998 </v>
   <v>       0.30000001       0.89999998       0.10000000 </v>
   <v>       0.30000001       0.89999998       0.30000001 </v>
   <v>       0.30000001       0.89999998       0.50000000 </v>
   <v>       0.30000001       0.89999998       0.69999999 </v>
   <v>       0.30000001       0.89999998       0.89999998 </v>
   <v>       0.50000000       0.10000000       0.10000000 </v>
   <v>       0.50000000       0.10000000       0.30000001 </v>
   <v>       0.50000000       0.10000000       0.50000000 </v>
   <v>       0.50000000       0.10000000       0.69999999 </v>
   <v>       0.50000000       0.10000000       0.89999998 </v>
   <v>       0.50000000       0.30000001       0.10000000 </v>
   <v>       0.50000000       0.30000001       0.30000001 </v>
   <v>       0.50000000       0.30000001       0.50000000 </v>
   <v>       0.50000000       0.30000001       0.69999999 </v>
   <v>       0.50000000       0.30000001       0.89999998 </v>
   <v>       0.50000000       0.50000000       0.10000000 </v>
   <v>       0.50000000       0.50000000       0.30000001 </v>
   <v>       0.50000000       0.50000000       0.50000000 </v>
   <v>       0.50000000       0.50000000       0.69999999 </v>
   <v>       0.50000000       0.50000000       0.89999998 </v>
   <v>       0.50000000       0.69999999       0.10000000 </v>
   <v>       0.50000000       0.69999999       0.30000001 </v>
   <v>       0.50000000       0.69999999       0.50000000 </v>
   <v>       0.50000000       0.69999999       0.69999999 </v>
   <v>       0.50000000       0.69999999       0.89999998 </v>
   <v>       0.50000000       0.89999998       0.10000000 </v>
   <v>       0.50000000       0.89999998       0.30000001 </v>
   <v>       0.50000000       0.89999998       0.50000000 </v>
   <v>       0.50000000       0.89999998       0.69999999 </v>
   <v>       0.50000000       0.89999998       0.89999998 </v>
   <v>       0.69999999       0.10000000       0.10000000 </v>
   <v>       0.69999999       0.10000000       0.30000001 </v>
   <v>       0.69999999       0.10000000       0.50000000 </v>
   <v>       0.69999999       0.10000000       0.69999999 </v>
   <v>       0.69999999       0.10000000       0.89999998 </v>
   <v>       0.69999999       0.30000001       0.10000000 </v>
   <v>       0.69999999       0.30000001       0.30000001 </v>
   <v>       0.69999999       0.30000001       0.50000000 </v>
   <v>       0.69999999       0.30000001       0.69999999 </v>
   <v>       0.69999999       0.30000001       0.89999998 </v>
   <v>       0.69999999       0.50000000       0.10000000 </v>
   <v>       0.69999999       0.50000000       0.30000001 </v>
   <v>       0.69999999       0.50000000       0.50000000 </v>
   <v>       0.69999999       0.50000000       0.69999999 </v>
   <v>       0.69999999       0.50000000       0.89999998 </v>
   <v>       0.69999999       0.69999999       0.10000000 </v>
   <v>       0.69999999       0.69999999       0.30000001 </v>
   <v>       0.69999999       0.69999999       0.50000000 </v>
   <v>       0.69999999       0.69999999       0.69999999 </v>
   <v>       0.69999999       0.69999999       0.89999998 </v>
   <v>       0.69999999       0.89999998       0.10000000 </v>
   <v>       0.69999999       0.89999998       0.30000001 </v>
   <v>       0.69999999       0.89999998       0.50000000 </v>
   <v>       0.69999999       0.89999998       0.69999999 </v>
   <v>       0.69999999       0.89999998       0.89999998 </v>
   <v>       0.89999998       0.10000000       0.10000000 </v>
   <v>       0.89999998       0.10000000       0.30000001 </v>
   <v>       0.89999998       0.10000000       0.50000000 </v>
   <v>       0.89999998       0.10000000       0.69999999 </v>
   <v>       0.89999998       0.10000000       0.89999998 </v>
   <v>       0.89999998       0.30000001       0.10000000 </v>
   <v>       0.89999998       0.30000001       0.30000001 </v>
   <v>       0.89999998       0.30000001       0.50000000 </v>
   <v>       0.89999998       0.30000001       0.69999999 </v>
   <v>       0.89999998       0.30000001       0.89999998 </v>
   <v>       0.89999998       0.50000000       0.10000000 </v>
   <v>       0.89999998       0.50000000       0.30000001 </v>
   <v>       0.89999998       0.50000000       0.50000000 </v>
   <v>       0.89999998       0.50000000       0.69999999 </v>
   <v>       0.89999998       0.50000000       0.89999998 </v>
   <v>       0.89999998       0.69999999       0.10000000 </v>
   <v>       0.89999998       0.69999999       0.30000001 </v>
   <v>       0.89999998       0.69999999       0.50000000 </v>
   <v>       0.89999998       0.69999999       0.69999999 </v>
   <v>       0.89999998       0.69999999       0.89999998 </v>
   <v>       0.89999998       0.89999998       0.10000000 </v>
   <v>       0.89999998       0.89999998       0.30000001 </v>
   <v>       0.89999998       0.89999998       0.50000000 </v>
   <v>       0.89999998       0.89999998       0.69999999 </v>
   <v>       0.89999998       0.89999998       0.89999998 </v>
  </varray>
 </structure>
</modeling>
