 running on    1 total cores
 distrk:  each k-point on    1 cores,    1 groups
 distr:  one band on    1 cores,    1 groups
 OpenACC runtime initialized ...    1 GPUs detected
 vasp.6.2.1 16May21 (build May 12 2022 08:28:04) complex                         
 POSCAR found type information on POSCAR NiO 
 POSCAR found :  2 types and     250 ions
 scaLAPACK will be used selectively (only on CPU)
 LDA part: xc-table for Pade appr. of Perdew
 POSCAR found type information on POSCAR NiO 
 POSCAR found :  2 types and     250 ions
 POSCAR, INCAR and KPOINTS ok, starting setup
 FFT: planning ...
 WAVECAR not read
 entering main loop
       N       E                     dE             d eps       ncg     rms          rms(c)
DAV:   1     0.310058229509E+05    0.31006E+05   -0.89933E+05 14552   0.156E+03
DAV:   2     0.511853413262E+04   -0.25887E+05   -0.23989E+05 15024   0.568E+02
DAV:   3     0.513849537939E+03   -0.46047E+04   -0.42246E+04 17728   0.280E+02
DAV:   4     0.238792183064E+01   -0.51146E+03   -0.49203E+03 20584   0.981E+01
DAV:   5    -0.140665850267E+02   -0.16455E+02   -0.16358E+02 19288   0.191E+01    0.736E+02
DAV:   6    -0.480968088895E+03   -0.46690E+03   -0.11268E+03 24432   0.228E+02    0.690E+02
DAV:   7    -0.878015307031E+04   -0.82992E+04   -0.43540E+04 23448   0.647E+02    0.310E+03
DAV:   8    -0.976945120500E+04   -0.98930E+03   -0.18656E+04 22664   0.214E+02    0.269E+03
DAV:   9    -0.867628985696E+04    0.10932E+04   -0.26793E+03 21728   0.655E+01    0.237E+03
DAV:  10    -0.296366802522E+04    0.57126E+04   -0.91769E+02 25368   0.130E+02    0.169E+03
DAV:  11    -0.304626726179E+04   -0.82599E+02   -0.79327E+02 19472   0.307E+01    0.171E+03
DAV:  12    -0.137845104450E+04    0.16678E+04   -0.80328E+03 22040   0.148E+02    0.120E+03
DAV:  13     0.264231008446E+03    0.16427E+04   -0.42968E+03 22720   0.229E+02    0.779E+02
DAV:  14    -0.436888306822E+04   -0.46331E+04   -0.10658E+04 19976   0.590E+02    0.182E+03
DAV:  15    -0.265323526997E+04    0.17156E+04   -0.35808E+04 23728   0.447E+02    0.150E+03
DAV:  16    -0.256905703061E+04    0.84178E+02   -0.13420E+04 21120   0.232E+02    0.131E+03
DAV:  17    -0.145970810656E+04    0.11093E+04   -0.21966E+03 23704   0.138E+02    0.122E+03
DAV:  18    -0.932904144178E+03    0.52680E+03   -0.10392E+03 21080   0.142E+02    0.114E+03
DAV:  19    -0.373169335935E+03    0.55973E+03   -0.96139E+02 23416   0.143E+02    0.996E+02
DAV:  20    -0.161830796480E+03    0.21134E+03   -0.37412E+02 17040   0.691E+01    0.954E+02
DAV:  21     0.790363438749E+02    0.24087E+03   -0.20248E+02 20536   0.438E+01    0.911E+02
DAV:  22     0.166449191676E+03    0.87413E+02   -0.24259E+02 17608   0.551E+01    0.793E+02
DAV:  23     0.219850724746E+03    0.53402E+02   -0.11733E+02 17432   0.287E+01    0.748E+02
DAV:  24     0.264269889865E+03    0.44419E+02   -0.57957E+01 17688   0.247E+01    0.696E+02
DAV:  25     0.264348494097E+03    0.78604E-01   -0.29326E+01 19664   0.116E+01    0.660E+02
DAV:  26     0.287732128919E+03    0.23384E+02   -0.22432E+01 18432   0.182E+01    0.604E+02
DAV:  27     0.316836327325E+03    0.29104E+02   -0.12552E+02 20128   0.346E+01    0.460E+02
DAV:  28     0.316737591989E+03   -0.98735E-01   -0.43571E+01 15192   0.139E+01    0.463E+02
DAV:  29     0.317351217069E+03    0.61363E+00   -0.28887E+00 22408   0.319E+00    0.463E+02
DAV:  30     0.294694982736E+03   -0.22656E+02   -0.90088E+00 22288   0.113E+01    0.425E+02
DAV:  31     0.280891104941E+03   -0.13804E+02   -0.86148E+00 18880   0.152E+01    0.369E+02
DAV:  32     0.259458748125E+03   -0.21432E+02   -0.16613E+01 19680   0.222E+01    0.312E+02
DAV:  33     0.204728844302E+03   -0.54730E+02   -0.40913E+01 17848   0.269E+01    0.243E+02
DAV:  34     0.211055449747E+03    0.63266E+01   -0.16290E+01 15304   0.113E+01    0.237E+02
DAV:  35     0.210151690399E+03   -0.90376E+00   -0.22641E+00 16888   0.448E+00    0.227E+02
DAV:  36     0.235338349418E+03    0.25187E+02   -0.35432E+00 18784   0.758E+00    0.203E+02
DAV:  37     0.278624210350E+03    0.43286E+02   -0.12208E+01 21176   0.128E+01    0.184E+02
DAV:  38     0.307321340401E+03    0.28697E+02   -0.14766E+01 18312   0.985E+00    0.158E+02
DAV:  39     0.315473916693E+03    0.81526E+01   -0.29344E+00 18832   0.367E+00    0.153E+02
DAV:  40     0.314781268627E+03   -0.69265E+00   -0.10380E+00 16656   0.306E+00    0.153E+02
DAV:  41     0.353881754458E+03    0.39100E+02   -0.15242E+01 23032   0.179E+01    0.991E+01
DAV:  42     0.364633487379E+03    0.10752E+02   -0.50096E+00 19496   0.552E+00    0.901E+01
DAV:  43     0.383066717478E+03    0.18433E+02   -0.11421E+01 19736   0.138E+01    0.947E+01
DAV:  44     0.387291503597E+03    0.42248E+01   -0.65673E+00 16888   0.590E+00    0.102E+02
DAV:  45     0.386907493776E+03   -0.38401E+00   -0.16053E+00 17952   0.238E+00    0.105E+02
DAV:  46     0.389205488449E+03    0.22980E+01   -0.25404E+00 23160   0.509E+00    0.114E+02
DAV:  47     0.388411139026E+03   -0.79435E+00   -0.52060E-01 17608   0.190E+00    0.116E+02
DAV:  48     0.389138150670E+03    0.72701E+00   -0.20632E-01 14800   0.140E+00    0.120E+02
DAV:  49     0.385787059971E+03   -0.33511E+01   -0.44537E-01 22976   0.270E+00    0.123E+02
DAV:  50     0.385551880316E+03   -0.23518E+00   -0.34150E-01 15424   0.126E+00    0.125E+02
DAV:  51     0.364578877497E+03   -0.20973E+02   -0.87551E+01 21312   0.330E+01    0.129E+02
DAV:  52     0.381907768374E+03    0.17329E+02   -0.50267E+01 16320   0.227E+01    0.991E+01
DAV:  53     0.390099608894E+03    0.81918E+01   -0.81665E+00 19848   0.983E+00    0.847E+01
DAV:  54     0.389949395255E+03   -0.15021E+00   -0.59504E+00 25184   0.663E+00    0.824E+01
DAV:  55     0.392830015908E+03    0.28806E+01   -0.19297E+00 15232   0.297E+00    0.813E+01
DAV:  56     0.426625409221E+03    0.33795E+02   -0.11425E+02 16696   0.354E+01    0.515E+01
DAV:  57     0.425770772961E+03   -0.85464E+00   -0.37451E+01 17128   0.161E+01    0.668E+01
DAV:  58     0.423801768453E+03   -0.19690E+01   -0.94620E+00 17144   0.927E+00    0.832E+01
DAV:  59     0.424146053090E+03    0.34428E+00   -0.21484E+00 17048   0.450E+00    0.832E+01
DAV:  60     0.423883382477E+03   -0.26267E+00   -0.61725E+00 16984   0.796E+00
 -----------------------------------------------------------------------------
|                                                                             |
|           W    W    AA    RRRRR   N    N  II  N    N   GGGG   !!!           |
|           W    W   A  A   R    R  NN   N  II  NN   N  G    G  !!!           |
|           W    W  A    A  R    R  N N  N  II  N N  N  G       !!!           |
|           W WW W  AAAAAA  RRRRR   N  N N  II  N  N N  G  GGG   !            |
|           WW  WW  A    A  R   R   N   NN  II  N   NN  G    G                |
|           W    W  A    A  R    R  N    N  II  N    N   GGGG   !!!           |
|                                                                             |
|     The electronic self-consistency was not achieved in the given           |
|     number of steps (NELM). The forces and other quantities evaluated       |
|     might not be reliable so examine the results carefully. If you find     |
|     spurious results, we suggest increasing NELM, if you were close to      |
|     convergence or switching to a different ALGO or adjusting the           |
|     density mixing parameters otherwise.                                    |
|                                                                             |
 -----------------------------------------------------------------------------

   1 F= 0.30838023E+03 E0= 0.30844008E+03  d E =0.308380E+03
 curvature:   0.00 expect dE= 0.000E+00 dE for cont linesearch  0.000E+00
 trial: gam= 0.00000 g(F)=  0.712E+03 g(S)=  0.000E+00 ort = 0.000E+00 (trialstep = 0.100E+01)
 search vector abs. value=  0.712E+03
 bond charge predicted
       N       E                     dE             d eps       ncg     rms          rms(c)
DAV:   1     0.202135713868E+04    0.15972E+04   -0.93169E+04 19712   0.497E+02    0.835E+02
DAV:   2    -0.279517195310E+04   -0.48165E+04   -0.21500E+04 21752   0.500E+02    0.162E+03
DAV:   3    -0.841531667892E+03    0.19536E+04   -0.16200E+04 21808   0.338E+02    0.442E+02
DAV:   4    -0.544849041658E+04   -0.46070E+04   -0.26119E+04 22840   0.642E+02    0.261E+03
DAV:   5    -0.546283970690E+04   -0.14349E+02   -0.15738E+04 23336   0.209E+02    0.199E+03
DAV:   6    -0.375315381826E+04    0.17097E+04   -0.18680E+03 19984   0.799E+01    0.146E+03
DAV:   7    -0.261988237030E+04    0.11333E+04   -0.68600E+02 23048   0.733E+01    0.104E+03
DAV:   8    -0.239404173431E+04    0.22584E+03   -0.62584E+03 25088   0.154E+02    0.711E+02
DAV:   9    -0.333514525258E+03    0.20605E+04   -0.29869E+03 20656   0.886E+01    0.508E+02
DAV:  10    -0.393928525120E+03   -0.60414E+02   -0.19280E+03 21712   0.109E+02    0.438E+02
DAV:  11    -0.904798153066E+02    0.30345E+03   -0.40389E+02 17440   0.626E+01    0.365E+02
DAV:  12    -0.163731483818E+03   -0.73252E+02   -0.30669E+02 19600   0.864E+01    0.322E+02
DAV:  13    -0.578530593063E+02    0.10588E+03   -0.18868E+02 21640   0.669E+01    0.280E+02
DAV:  14    -0.235068717897E+02    0.34346E+02   -0.86488E+01 15760   0.261E+01    0.277E+02
DAV:  15    -0.137615329172E+03   -0.11411E+03   -0.62541E+01 17016   0.557E+01    0.221E+02
DAV:  16     0.284281937452E+02    0.16604E+03   -0.73256E+01 17464   0.570E+01    0.163E+02
DAV:  17     0.660568956612E+02    0.37629E+02   -0.64550E+01 15920   0.521E+01    0.122E+02
DAV:  18     0.679328080360E+02    0.18759E+01   -0.32151E+01 16208   0.355E+01    0.118E+02
DAV:  19     0.648195797661E+02   -0.31132E+01   -0.24625E+01 15440   0.244E+01    0.114E+02
DAV:  20     0.704319049027E+02    0.56123E+01   -0.94123E+00 16360   0.912E+00    0.112E+02
DAV:  21     0.744923044178E+02    0.40604E+01   -0.37255E+00 24328   0.826E+00    0.984E+01
DAV:  22     0.768888717378E+02    0.23966E+01   -0.51457E+00 15976   0.631E+00    0.900E+01
DAV:  23     0.769143362404E+02    0.25465E-01   -0.14350E+00 17192   0.274E+00    0.858E+01
DAV:  24     0.775768176122E+02    0.66248E+00   -0.39008E-01 20128   0.161E+00    0.816E+01
DAV:  25     0.798985302704E+02    0.23217E+01   -0.14046E+00 17944   0.397E+00    0.706E+01
DAV:  26     0.797949095373E+02   -0.10362E+00   -0.21493E+00 16120   0.441E+00    0.660E+01
DAV:  27     0.814721073122E+02    0.16772E+01   -0.10495E+00 15664   0.314E+00    0.657E+01
DAV:  28     0.830561056985E+02    0.15840E+01   -0.22778E-01 21656   0.169E+00    0.647E+01
DAV:  29     0.859877475575E+02    0.29316E+01   -0.96448E-01 21744   0.527E+00    0.660E+01
DAV:  30     0.864732085057E+02    0.48546E+00   -0.45721E-01 21336   0.201E+00    0.646E+01
DAV:  31     0.869949848647E+02    0.52178E+00   -0.27667E-01 16376   0.172E+00    0.647E+01
DAV:  32     0.876961762253E+02    0.70119E+00   -0.42844E-01 15096   0.205E+00    0.633E+01
DAV:  33     0.879185159360E+02    0.22234E+00   -0.12566E-01 18920   0.953E-01    0.639E+01
DAV:  34     0.880012726788E+02    0.82757E-01   -0.64299E-02 16736   0.466E-01    0.639E+01
DAV:  35     0.880679131337E+02    0.66640E-01   -0.32988E-02 17904   0.480E-01    0.640E+01
DAV:  36     0.883036443400E+02    0.23573E+00   -0.32991E-01 15312   0.168E+00    0.628E+01
DAV:  37     0.884682679046E+02    0.16462E+00   -0.30942E-01 16248   0.169E+00    0.623E+01
DAV:  38     0.884568052208E+02   -0.11463E-01   -0.11674E-01 19256   0.583E-01    0.627E+01
DAV:  39     0.884495865488E+02   -0.72187E-02   -0.51343E-03 19656   0.117E-01    0.627E+01
DAV:  40     0.884455985683E+02   -0.39880E-02   -0.67265E-04 21744   0.158E-01    0.630E+01
DAV:  41     0.883966698605E+02   -0.48929E-01   -0.15137E-02 15616   0.304E-01    0.622E+01
DAV:  42     0.883878043168E+02   -0.88655E-02   -0.12423E-01 15856   0.127E+00    0.594E+01
DAV:  43     0.883821809436E+02   -0.56234E-02   -0.11795E-01 15896   0.889E-01    0.590E+01
DAV:  44     0.884357563443E+02    0.53575E-01   -0.50218E-02 23320   0.397E-01    0.586E+01
DAV:  45     0.885916231568E+02    0.15587E+00   -0.26222E-02 18584   0.575E-01    0.576E+01
DAV:  46     0.885972652156E+02    0.56421E-02   -0.59454E-02 15640   0.805E-01    0.556E+01
DAV:  47     0.758540864559E+02   -0.12743E+02   -0.23529E+01 15720   0.159E+01    0.107E+02
DAV:  48     0.800403213487E+02    0.41862E+01   -0.47200E+00 15960   0.747E+00    0.953E+01
DAV:  49     0.825820243675E+02    0.25417E+01   -0.31760E+00 15320   0.489E+00    0.910E+01
DAV:  50     0.867017506855E+02    0.41197E+01   -0.24567E+00 15856   0.551E+00    0.753E+01
DAV:  51     0.882417379171E+02    0.15400E+01   -0.20774E+00 15296   0.418E+00    0.677E+01
DAV:  52     0.833844244429E+02   -0.48573E+01   -0.63710E+00 15776   0.766E+00    0.719E+01
DAV:  53     0.845364878634E+02    0.11521E+01   -0.19594E+00 15664   0.494E+00    0.673E+01
DAV:  54     0.850744934510E+02    0.53801E+00   -0.20743E+00 15360   0.455E+00    0.469E+01
DAV:  55     0.882024052711E+02    0.31279E+01   -0.16395E+00 15744   0.468E+00    0.304E+01
DAV:  56     0.885167425252E+02    0.31434E+00   -0.89197E-01 18368   0.284E+00    0.265E+01
DAV:  57     0.898586507356E+02    0.13419E+01   -0.32449E+00 19272   0.573E+00    0.155E+01
DAV:  58     0.900200058888E+02    0.16136E+00   -0.17862E+00 15360   0.350E+00    0.113E+01
DAV:  59     0.901444592378E+02    0.12445E+00   -0.32368E-01 16224   0.188E+00    0.119E+01
DAV:  60     0.902087800647E+02    0.64321E-01   -0.29704E-01 15456   0.139E+00
 -----------------------------------------------------------------------------
|                                                                             |
|           W    W    AA    RRRRR   N    N  II  N    N   GGGG   !!!           |
|           W    W   A  A   R    R  NN   N  II  NN   N  G    G  !!!           |
|           W    W  A    A  R    R  N N  N  II  N N  N  G       !!!           |
|           W WW W  AAAAAA  RRRRR   N  N N  II  N  N N  G  GGG   !            |
|           WW  WW  A    A  R   R   N   NN  II  N   NN  G    G                |
|           W    W  A    A  R    R  N    N  II  N    N   GGGG   !!!           |
|                                                                             |
|     The electronic self-consistency was not achieved in the given           |
|     number of steps (NELM). The forces and other quantities evaluated       |
|     might not be reliable so examine the results carefully. If you find     |
|     spurious results, we suggest increasing NELM, if you were close to      |
|     convergence or switching to a different ALGO or adjusting the           |
|     density mixing parameters otherwise.                                    |
|                                                                             |
 -----------------------------------------------------------------------------

   2 F= -.19838390E+02 E0= -.19748106E+02  d E =-.328219E+03
 trial-energy change: -328.218616  1 .order -435.374511 -712.461753 -158.287269
 step:   1.2856(harm=  1.2856)  dis= 0.60839  next Energy=  -149.599854 (dE=-0.458E+03)
 bond charge predicted
       N       E                     dE             d eps       ncg     rms          rms(c)
DAV:   1     0.106360329939E+03    0.16216E+02   -0.11413E+04 14504   0.118E+02    0.647E+01
DAV:   2    -0.393892166810E+02   -0.14575E+03   -0.63253E+02 16504   0.617E+01    0.109E+02
DAV:   3    -0.351772706619E+03   -0.31238E+03   -0.19214E+02 17072   0.124E+02    0.341E+02
DAV:   4    -0.388283755747E+02    0.31294E+03   -0.84370E+01 20848   0.561E+01    0.930E+01
DAV:   5    -0.278409520965E+02    0.10987E+02   -0.58742E+01 17872   0.484E+01    0.157E+02
DAV:   6     0.443343250272E+02    0.72175E+02   -0.29682E+01 17104   0.417E+01    0.491E+01
DAV:   7     0.459888234460E+02    0.16545E+01   -0.19430E+01 16776   0.133E+01    0.454E+01
DAV:   8     0.461431512488E+02    0.15433E+00   -0.58618E+00 16448   0.766E+00    0.438E+01
DAV:   9     0.497299496303E+02    0.35868E+01   -0.55601E+00 15808   0.119E+01    0.334E+01
DAV:  10     0.470579886627E+02   -0.26720E+01   -0.45365E+00 16000   0.113E+01    0.386E+01
DAV:  11     0.492947770343E+02    0.22368E+01   -0.33315E+00 18504   0.116E+01    0.260E+01
DAV:  12     0.511567704617E+02    0.18620E+01   -0.36542E+00 17960   0.115E+01    0.210E+01
DAV:  13     0.518657694133E+02    0.70900E+00   -0.13933E+00 20880   0.508E+00    0.128E+01
DAV:  14     0.517461188813E+02   -0.11965E+00   -0.56713E-01 19680   0.125E+00    0.139E+01
DAV:  15     0.517398012988E+02   -0.63176E-02   -0.72314E-02 17616   0.942E-01    0.125E+01
DAV:  16     0.520299305222E+02    0.29013E+00   -0.15377E-01 23496   0.202E+00    0.935E+00
DAV:  17     0.521131171980E+02    0.83187E-01   -0.13969E-01 17368   0.996E-01    0.694E+00
DAV:  18     0.521373856226E+02    0.24268E-01   -0.40297E-02 16160   0.556E-01    0.644E+00
DAV:  19     0.521741317427E+02    0.36746E-01   -0.35885E-02 20992   0.659E-01    0.523E+00
DAV:  20     0.522084468142E+02    0.34315E-01   -0.20653E-02 21944   0.695E-01    0.394E+00
DAV:  21     0.522068671789E+02   -0.15796E-02   -0.13243E-02 17840   0.350E-01    0.382E+00
DAV:  22     0.522218996626E+02    0.15032E-01   -0.17121E-02 19304   0.478E-01    0.274E+00
DAV:  23     0.522238955307E+02    0.19959E-02   -0.80149E-03 16880   0.254E-01    0.225E+00
DAV:  24     0.522246933808E+02    0.79785E-03   -0.43273E-03 22688   0.227E-01    0.183E+00
DAV:  25     0.522250642078E+02    0.37083E-03   -0.25369E-03 16264   0.172E-01    0.162E+00
DAV:  26     0.522250494235E+02   -0.14784E-04   -0.95181E-04 17024   0.124E-01    0.135E+00
DAV:  27     0.522253455902E+02    0.29617E-03   -0.96725E-04 17560   0.634E-02    0.117E+00
DAV:  28     0.522254100912E+02    0.64501E-04   -0.22832E-04 18528   0.284E-02    0.110E+00
DAV:  29     0.522254917128E+02    0.81622E-04   -0.60303E-05 20712   0.343E-02    0.968E-01
DAV:  30     0.522256983165E+02    0.20660E-03   -0.17403E-04 23288   0.668E-02    0.735E-01
DAV:  31     0.522257287120E+02    0.30396E-04   -0.14648E-04 15096   0.269E-02    0.675E-01
DAV:  32     0.522257755506E+02    0.46839E-04   -0.42412E-05 17656   0.438E-02    0.561E-01
DAV:  33     0.522258329624E+02    0.57412E-04   -0.39996E-05 16232   0.182E-02    0.476E-01
DAV:  34     0.522259100298E+02    0.77067E-04   -0.31098E-05 15696   0.242E-02    0.298E-01
DAV:  35     0.522259495500E+02    0.39520E-04   -0.54037E-05 16752   0.193E-02    0.228E-01
DAV:  36     0.522259477046E+02   -0.18454E-05   -0.23218E-05 13136   0.999E-03
   3 F= -.56350734E+02 E0= -.56268461E+02  d E =-.364731E+03
 curvature:  -0.64 expect dE=-0.320E+03 dE for cont linesearch -0.928E+01
 ZBRENT: increasing intervall
 opt :   1.8569  next Energy=   -81.772504 (dE=-0.390E+03)
 bond charge predicted
       N       E                     dE             d eps       ncg     rms          rms(c)
DAV:   1     0.497037978088E+03    0.44481E+03   -0.53673E+04 14840   0.295E+02    0.387E+02
DAV:   2    -0.929507906994E+04   -0.97921E+04   -0.42851E+04 23704   0.606E+02    0.309E+03
DAV:   3    -0.134511013284E+05   -0.41560E+04   -0.24067E+04 23976   0.223E+02    0.258E+03
DAV:   4    -0.104817551772E+04    0.12403E+05   -0.14935E+05 24944   0.536E+02    0.241E+03
DAV:   5    -0.303570882478E+04   -0.19875E+04   -0.33602E+04 16976   0.310E+02    0.110E+03
DAV:   6    -0.571822744728E+03    0.24639E+04   -0.36554E+03 20072   0.141E+02    0.605E+02
DAV:   7    -0.948635799047E+03   -0.37681E+03   -0.22485E+03 21368   0.228E+02    0.614E+02
DAV:   8    -0.226158413546E+03    0.72248E+03   -0.18563E+03 16048   0.136E+02    0.237E+02
DAV:   9    -0.487131332063E+03   -0.26097E+03   -0.54547E+02 16448   0.105E+02    0.195E+02
DAV:  10    -0.428012353847E+03    0.59119E+02   -0.44478E+02 20808   0.784E+01    0.202E+02
DAV:  11    -0.121892283125E+03    0.30612E+03   -0.12601E+02 16312   0.893E+01    0.120E+02
DAV:  12    -0.810846280819E+02    0.40808E+02   -0.79703E+01 16592   0.275E+01    0.902E+01
DAV:  13    -0.579420354827E+02    0.23143E+02   -0.35541E+01 17528   0.169E+01    0.920E+01
DAV:  14    -0.407180051645E+02    0.17224E+02   -0.10339E+01 18648   0.112E+01    0.817E+01
DAV:  15     0.559233807027E+00    0.41277E+02   -0.26617E+01 20736   0.221E+01    0.447E+01
DAV:  16     0.691340399673E+01    0.63542E+01   -0.93364E+00 19768   0.943E+00    0.369E+01
DAV:  17     0.109171222621E+02    0.40037E+01   -0.69529E+00 21584   0.925E+00    0.306E+01
DAV:  18     0.933677329076E+01   -0.15803E+01   -0.36796E+00 16576   0.618E+00    0.338E+01
DAV:  19     0.972240400780E+01    0.38563E+00   -0.21941E+00 17024   0.664E+00    0.323E+01
DAV:  20     0.957127960119E+01   -0.15112E+00   -0.46313E+00 18088   0.589E+00    0.346E+01
DAV:  21     0.103613135130E+02    0.79003E+00   -0.67858E-01 18944   0.209E+00    0.280E+01
DAV:  22     0.968466600077E+01   -0.67665E+00   -0.26849E+00 21608   0.541E+00    0.283E+01
DAV:  23     0.100673502763E+02    0.38268E+00   -0.21885E+00 19200   0.340E+00    0.247E+01
DAV:  24     0.102123003649E+02    0.14495E+00   -0.19757E-01 15992   0.126E+00    0.237E+01
DAV:  25     0.101805129144E+02   -0.31787E-01   -0.53798E-02 16048   0.540E-01    0.242E+01
DAV:  26     0.102911615162E+02    0.11065E+00   -0.93249E-02 23328   0.896E-01    0.234E+01
DAV:  27     0.106691816840E+02    0.37802E+00   -0.39353E-01 20536   0.150E+00    0.204E+01
DAV:  28     0.107359095169E+02    0.66728E-01   -0.12846E-01 15936   0.893E-01    0.206E+01
DAV:  29     0.108693814655E+02    0.13347E+00   -0.13758E-01 17152   0.665E-01    0.201E+01
DAV:  30     0.109030203833E+02    0.33639E-01   -0.23235E-02 17984   0.388E-01    0.202E+01
DAV:  31     0.110715050823E+02    0.16848E+00   -0.34709E-02 18792   0.445E-01    0.202E+01
DAV:  32     0.112473490764E+02    0.17584E+00   -0.41413E-02 23952   0.487E-01    0.206E+01
DAV:  33     0.113200614676E+02    0.72712E-01   -0.33896E-02 18200   0.311E-01    0.208E+01
DAV:  34     0.114049399700E+02    0.84879E-01   -0.20534E-02 20352   0.210E-01    0.212E+01
DAV:  35     0.114758672724E+02    0.70927E-01   -0.60250E-03 18120   0.124E-01    0.217E+01
DAV:  36     0.115433132933E+02    0.67446E-01   -0.34116E-03 21672   0.120E-01    0.222E+01
DAV:  37     0.115987214488E+02    0.55408E-01   -0.60518E-03 17760   0.134E-01    0.229E+01
DAV:  38     0.116000326816E+02    0.13112E-02   -0.79769E-04 15896   0.547E-02    0.230E+01
DAV:  39     0.115962274289E+02   -0.38053E-02   -0.13201E-04 14960   0.303E-02    0.229E+01
DAV:  40     0.115945266429E+02   -0.17008E-02   -0.44629E-05 13976   0.165E-02    0.228E+01
DAV:  41     0.115524678719E+02   -0.42059E-01   -0.40516E-03 17168   0.201E-01    0.220E+01
DAV:  42     0.113628601981E+02   -0.18961E+00   -0.44306E-02 17368   0.572E-01    0.192E+01
DAV:  43     0.113462169948E+02   -0.16643E-01   -0.17229E-02 16464   0.257E-01    0.183E+01
DAV:  44     0.113375658984E+02   -0.86511E-02   -0.23092E-03 23048   0.823E-02    0.178E+01
DAV:  45     0.112907641856E+02   -0.46802E-01   -0.24496E-03 17784   0.125E-01    0.166E+01
DAV:  46     0.112159015546E+02   -0.74863E-01   -0.98131E-03 16800   0.225E-01    0.145E+01
DAV:  47     0.756674027769E+01   -0.36492E+01   -0.64746E+00 20592   0.608E+00    0.271E+01
DAV:  48     0.763398954971E+01    0.67249E-01   -0.53038E-01 15176   0.127E+00    0.272E+01
DAV:  49     0.730206310516E+01   -0.33193E+00   -0.51794E-02 19080   0.610E-01    0.275E+01
DAV:  50     0.687216792861E+01   -0.42990E+00   -0.27065E-02 22912   0.393E-01    0.279E+01
DAV:  51     0.795899023395E+01    0.10868E+01   -0.55249E-02 17216   0.103E+00    0.267E+01
DAV:  52     0.580183935026E+01   -0.21572E+01   -0.95736E-01 17872   0.416E+00    0.296E+01
DAV:  53     0.673879420105E+01    0.93695E+00   -0.28927E-01 18320   0.239E+00    0.281E+01
DAV:  54     0.700623820443E+01    0.26744E+00   -0.61846E-01 15768   0.270E+00    0.288E+01
DAV:  55     0.599803720554E+01   -0.10082E+01   -0.23075E-01 16968   0.186E+00    0.302E+01
DAV:  56     0.325899028312E+01   -0.27390E+01   -0.57585E-01 18464   0.269E+00    0.353E+01
DAV:  57     0.793371907435E+00   -0.24656E+01   -0.64819E-01 18808   0.232E+00    0.423E+01
DAV:  58    -0.209952201601E+01   -0.28929E+01   -0.34903E-01 21616   0.156E+00    0.468E+01
DAV:  59     0.269998732023E+01    0.47995E+01   -0.44451E-01 16672   0.327E+00    0.378E+01
DAV:  60     0.262199209211E+01   -0.77995E-01   -0.10289E-01 17848   0.721E-01
 -----------------------------------------------------------------------------
|                                                                             |
|           W    W    AA    RRRRR   N    N  II  N    N   GGGG   !!!           |
|           W    W   A  A   R    R  NN   N  II  NN   N  G    G  !!!           |
|           W    W  A    A  R    R  N N  N  II  N N  N  G       !!!           |
|           W WW W  AAAAAA  RRRRR   N  N N  II  N  N N  G  GGG   !            |
|           WW  WW  A    A  R   R   N   NN  II  N   NN  G    G                |
|           W    W  A    A  R    R  N    N  II  N    N   GGGG   !!!           |
|                                                                             |
|     The electronic self-consistency was not achieved in the given           |
|     number of steps (NELM). The forces and other quantities evaluated       |
|     might not be reliable so examine the results carefully. If you find     |
|     spurious results, we suggest increasing NELM, if you were close to      |
|     convergence or switching to a different ALGO or adjusting the           |
|     density mixing parameters otherwise.                                    |
|                                                                             |
 -----------------------------------------------------------------------------

   4 F= -.10324683E+03 E0= -.10314417E+03  d E =-.411627E+03
 curvature:  -1.76 expect dE=-0.109E+04 dE for cont linesearch -0.539E+01
 trial: gam= 0.80249 g(F)=  0.618E+03 g(S)=  0.000E+00 ort = 0.467E+02 (trialstep = 0.724E+00)
 search vector abs. value=  0.115E+04
 bond charge predicted
       N       E                     dE             d eps       ncg     rms          rms(c)
DAV:   1     0.108753931770E+04    0.10848E+04   -0.11030E+05 15008   0.537E+02    0.605E+02
DAV:   2    -0.129663086382E+05   -0.14054E+05   -0.78161E+04 24256   0.711E+02    0.406E+03
DAV:   3    -0.221766076491E+05   -0.92103E+04   -0.41304E+04 24024   0.322E+02    0.378E+03
DAV:   4    -0.308904381404E+04    0.19088E+05   -0.36581E+05 24280   0.692E+02    0.416E+03
DAV:   5    -0.359478816893E+02    0.30531E+04   -0.68267E+04 19376   0.463E+02    0.124E+03
DAV:   6    -0.292075330172E+04   -0.28848E+04   -0.16405E+04 20960   0.429E+02    0.175E+03
DAV:   7    -0.444446329766E+04   -0.15237E+04   -0.17072E+04 21632   0.198E+02    0.104E+03
DAV:   8    -0.818051223741E+03    0.36264E+04   -0.70206E+03 23696   0.179E+02    0.386E+02
DAV:   9    -0.703336299187E+03    0.11471E+03   -0.25807E+03 20792   0.240E+02    0.395E+02
DAV:  10    -0.427842520580E+03    0.27549E+03   -0.17987E+03 17752   0.126E+02    0.214E+02
DAV:  11    -0.333202211071E+03    0.94640E+02   -0.43477E+02 16464   0.921E+01    0.145E+02
DAV:  12    -0.387299548904E+03   -0.54097E+02   -0.25909E+02 18744   0.577E+01    0.168E+02
DAV:  13    -0.312281289997E+03    0.75018E+02   -0.11955E+02 15616   0.443E+01    0.170E+02
DAV:  14    -0.296951723664E+03    0.15330E+02   -0.42893E+01 19272   0.215E+01    0.141E+02
DAV:  15    -0.293016347699E+03    0.39354E+01   -0.22596E+01 18120   0.109E+01    0.144E+02
DAV:  16    -0.286508726439E+03    0.65076E+01   -0.39923E+01 22128   0.341E+01    0.948E+01
DAV:  17    -0.277052653542E+03    0.94561E+01   -0.17649E+01 20536   0.195E+01    0.890E+01
DAV:  18    -0.293494734515E+03   -0.16442E+02   -0.16224E+01 18280   0.176E+01    0.996E+01
DAV:  19    -0.285076174201E+03    0.84186E+01   -0.83222E+00 16328   0.801E+00    0.920E+01
DAV:  20    -0.277303817092E+03    0.77724E+01   -0.14890E+01 18440   0.163E+01    0.845E+01
DAV:  21    -0.271880012376E+03    0.54238E+01   -0.49856E+00 17296   0.512E+00    0.828E+01
DAV:  22    -0.272518228318E+03   -0.63822E+00   -0.15013E+00 15704   0.268E+00    0.853E+01
DAV:  23    -0.271406347280E+03    0.11119E+01   -0.44617E-01 18272   0.199E+00    0.831E+01
DAV:  24    -0.271042287375E+03    0.36406E+00   -0.64686E-01 20072   0.183E+00    0.808E+01
DAV:  25    -0.270022068553E+03    0.10202E+01   -0.27721E-01 19224   0.189E+00    0.835E+01
DAV:  26    -0.268715724227E+03    0.13063E+01   -0.41396E-01 22720   0.147E+00    0.829E+01
DAV:  27    -0.268868356026E+03   -0.15263E+00   -0.13546E-01 16160   0.823E-01    0.836E+01
DAV:  28    -0.268440430904E+03    0.42793E+00   -0.64225E-02 22976   0.988E-01    0.837E+01
DAV:  29    -0.268961371847E+03   -0.52094E+00   -0.22656E-01 24456   0.191E+00    0.846E+01
DAV:  30    -0.269141054289E+03   -0.17968E+00   -0.14409E-01 15696   0.656E-01    0.847E+01
DAV:  31    -0.269160115739E+03   -0.19061E-01   -0.16813E-02 16256   0.563E-01    0.838E+01
DAV:  32    -0.268882535181E+03    0.27758E+00   -0.11384E-02 15904   0.237E-01    0.840E+01
DAV:  33    -0.270717564391E+03   -0.18350E+01   -0.84377E-02 18984   0.697E-01    0.841E+01
DAV:  34    -0.270769239648E+03   -0.51675E-01   -0.18697E-02 15552   0.265E-01    0.842E+01
DAV:  35    -0.270764034617E+03    0.52050E-02   -0.90300E-04 19784   0.505E-02    0.842E+01
DAV:  36    -0.270562225110E+03    0.20181E+00   -0.62777E-03 20000   0.430E-01    0.846E+01
DAV:  37    -0.270902185581E+03   -0.33996E+00   -0.69067E-02 17656   0.751E-01    0.857E+01
DAV:  38    -0.270631567892E+03    0.27062E+00   -0.17349E-02 16496   0.462E-01    0.852E+01
DAV:  39    -0.270696867446E+03   -0.65300E-01   -0.65661E-03 15024   0.244E-01    0.852E+01
DAV:  40    -0.270095521878E+03    0.60135E+00   -0.24492E-02 15352   0.564E-01    0.850E+01
DAV:  41    -0.268731624050E+03    0.13639E+01   -0.10424E-01 18672   0.102E+00    0.845E+01
DAV:  42    -0.266956376757E+03    0.17752E+01   -0.43088E-01 20680   0.180E+00    0.870E+01
DAV:  43    -0.265168861478E+03    0.17875E+01   -0.30215E-01 21296   0.158E+00    0.904E+01
DAV:  44    -0.265073364628E+03    0.95497E-01   -0.81095E-02 16672   0.538E-01    0.916E+01
DAV:  45    -0.265213755225E+03   -0.14039E+00   -0.40912E-03 16816   0.257E-01    0.917E+01
DAV:  46    -0.264972710453E+03    0.24104E+00   -0.39485E-02 15856   0.869E-01    0.942E+01
DAV:  47    -0.279914974514E+03   -0.14942E+02   -0.26558E+01 20976   0.193E+01    0.117E+02
DAV:  48    -0.281199088363E+03   -0.12841E+01   -0.11393E+01 15664   0.769E+00    0.123E+02
DAV:  49    -0.277818824114E+03    0.33803E+01   -0.20638E+00 16496   0.388E+00    0.130E+02
DAV:  50    -0.275642052591E+03    0.21768E+01   -0.69268E-01 20048   0.190E+00    0.130E+02
DAV:  51    -0.273861206045E+03    0.17808E+01   -0.72122E-01 21072   0.400E+00    0.137E+02
DAV:  52    -0.334564706365E+03   -0.60704E+02   -0.16543E+02 15664   0.417E+01    0.142E+02
DAV:  53    -0.351864044925E+03   -0.17299E+02   -0.34863E+01 17000   0.145E+01    0.154E+02
DAV:  54    -0.327245370260E+03    0.24619E+02   -0.10388E+01 21208   0.153E+01    0.145E+02
DAV:  55    -0.325548123078E+03    0.16972E+01   -0.10052E+01 15848   0.689E+00    0.145E+02
DAV:  56    -0.328397047296E+03   -0.28489E+01   -0.11731E+01 15440   0.989E+00    0.136E+02
DAV:  57    -0.316393176551E+03    0.12004E+02   -0.12184E+01 21776   0.147E+01    0.123E+02
DAV:  58    -0.294164562023E+03    0.22229E+02   -0.16560E+01 16496   0.117E+01    0.112E+02
DAV:  59    -0.281865463034E+03    0.12299E+02   -0.18777E+01 21744   0.164E+01    0.111E+02
DAV:  60    -0.274050862549E+03    0.78146E+01   -0.20754E+01 16400   0.140E+01
 -----------------------------------------------------------------------------
|                                                                             |
|           W    W    AA    RRRRR   N    N  II  N    N   GGGG   !!!           |
|           W    W   A  A   R    R  NN   N  II  NN   N  G    G  !!!           |
|           W    W  A    A  R    R  N N  N  II  N N  N  G       !!!           |
|           W WW W  AAAAAA  RRRRR   N  N N  II  N  N N  G  GGG   !            |
|           WW  WW  A    A  R   R   N   NN  II  N   NN  G    G                |
|           W    W  A    A  R    R  N    N  II  N    N   GGGG   !!!           |
|                                                                             |
|     The electronic self-consistency was not achieved in the given           |
|     number of steps (NELM). The forces and other quantities evaluated       |
|     might not be reliable so examine the results carefully. If you find     |
|     spurious results, we suggest increasing NELM, if you were close to      |
|     convergence or switching to a different ALGO or adjusting the           |
|     density mixing parameters otherwise.                                    |
|                                                                             |
 -----------------------------------------------------------------------------

   5 F= -.37564724E+03 E0= -.37549920E+03  d E =-.272400E+03
 trial-energy change: -272.400409  1 .order -295.592589 -475.091656 -116.093521
 step:   0.9585(harm=  0.9585)  dis= 0.40534  next Energy=  -417.610693 (dE=-0.314E+03)
 bond charge predicted
       N       E                     dE             d eps       ncg     rms          rms(c)
DAV:   1    -0.271683640723E+03    0.10182E+02   -0.98336E+03 14448   0.125E+02    0.118E+02
DAV:   2    -0.605065706414E+04   -0.57790E+04   -0.17046E+04 22768   0.439E+02    0.171E+03
DAV:   3    -0.407325684956E+04    0.19774E+04   -0.84181E+03 22856   0.135E+02    0.866E+02
DAV:   4    -0.137582754479E+03    0.39357E+04   -0.18716E+04 25832   0.188E+02    0.353E+02
DAV:   5    -0.762209225419E+03   -0.62463E+03   -0.39742E+03 19088   0.884E+01    0.308E+02
DAV:   6    -0.465271352715E+03    0.29694E+03   -0.38390E+02 16888   0.106E+02    0.143E+02
DAV:   7    -0.513310875597E+03   -0.48040E+02   -0.26761E+02 16480   0.749E+01    0.193E+02
DAV:   8    -0.411425233611E+03    0.10189E+03   -0.17100E+02 18472   0.544E+01    0.143E+02
DAV:   9    -0.390826665002E+03    0.20599E+02   -0.61706E+01 16200   0.293E+01    0.167E+02
DAV:  10    -0.354832311658E+03    0.35994E+02   -0.38952E+01 19960   0.274E+01    0.129E+02
DAV:  11    -0.295581145675E+03    0.59251E+02   -0.44079E+01 21840   0.383E+01    0.837E+01
DAV:  12    -0.385663355813E+03   -0.90082E+02   -0.43764E+01 21168   0.397E+01    0.980E+01
DAV:  13    -0.311191361161E+03    0.74472E+02   -0.42740E+01 21992   0.310E+01    0.716E+01
DAV:  14    -0.316169124115E+03   -0.49778E+01   -0.38917E+01 22472   0.255E+01    0.126E+02
DAV:  15    -0.297712099702E+03    0.18457E+02   -0.17044E+01 17824   0.122E+01    0.686E+01
DAV:  16    -0.298530774319E+03   -0.81867E+00   -0.27787E+00 19368   0.519E+00    0.664E+01
DAV:  17    -0.295003633369E+03    0.35271E+01   -0.60753E+00 26048   0.984E+00    0.564E+01
DAV:  18    -0.292799567400E+03    0.22041E+01   -0.75843E+00 20472   0.744E+00    0.541E+01
DAV:  19    -0.290169892589E+03    0.26297E+01   -0.28649E+00 19856   0.587E+00    0.573E+01
DAV:  20    -0.290572267171E+03   -0.40237E+00   -0.13083E+00 21032   0.552E+00    0.557E+01
DAV:  21    -0.287404763266E+03    0.31675E+01   -0.33051E+00 22648   0.623E+00    0.593E+01
DAV:  22    -0.287155762795E+03    0.24900E+00   -0.18013E+00 19104   0.297E+00    0.617E+01
DAV:  23    -0.287914627054E+03   -0.75886E+00   -0.28947E-01 19456   0.104E+00    0.632E+01
DAV:  24    -0.287939982736E+03   -0.25356E-01   -0.48406E-02 16072   0.468E-01    0.637E+01
DAV:  25    -0.288541722128E+03   -0.60174E+00   -0.44513E-02 22960   0.611E-01    0.656E+01
DAV:  26    -0.290816784117E+03   -0.22751E+01   -0.80896E-01 19064   0.156E+00    0.729E+01
DAV:  27    -0.290536373662E+03    0.28041E+00   -0.19453E-01 15176   0.622E-01    0.732E+01
DAV:  28    -0.290839939681E+03   -0.30357E+00   -0.14060E-02 20192   0.275E-01    0.745E+01
DAV:  29    -0.290699352495E+03    0.14059E+00   -0.18804E-01 24360   0.144E-01    0.749E+01
DAV:  30    -0.290852232291E+03   -0.15288E+00   -0.27614E-03 15992   0.144E-01    0.760E+01
DAV:  31    -0.291988659889E+03   -0.11364E+01   -0.24376E-01 17216   0.604E-01    0.804E+01
DAV:  32    -0.291522140828E+03    0.46652E+00   -0.18746E-02 15272   0.504E-01    0.782E+01
DAV:  33    -0.291185674365E+03    0.33647E+00   -0.95030E-03 17576   0.226E-01    0.768E+01
DAV:  34    -0.290310278238E+03    0.87540E+00   -0.56779E-02 18624   0.672E-01    0.718E+01
DAV:  35    -0.286134215209E+03    0.41761E+01   -0.24117E+00 19376   0.280E+00    0.547E+01
DAV:  36    -0.284571335659E+03    0.15629E+01   -0.91341E-01 16120   0.205E+00    0.446E+01
DAV:  37    -0.284273592334E+03    0.29774E+00   -0.28463E-01 15944   0.104E+00    0.430E+01
DAV:  38    -0.284238021692E+03    0.35571E-01   -0.26997E-02 23024   0.253E-01    0.429E+01
DAV:  39    -0.282398908365E+03    0.18391E+01   -0.62406E-01 19816   0.246E+00    0.292E+01
DAV:  40    -0.282035954113E+03    0.36295E+00   -0.32017E-01 15656   0.105E+00    0.266E+01
DAV:  41    -0.280687782593E+03    0.13482E+01   -0.33370E-01 21968   0.186E+00    0.171E+01
DAV:  42    -0.280072143256E+03    0.61564E+00   -0.21932E-01 18152   0.122E+00    0.131E+01
DAV:  43    -0.279973037885E+03    0.99105E-01   -0.11621E-01 15616   0.601E-01    0.115E+01
DAV:  44    -0.279843659124E+03    0.12938E+00   -0.16069E-02 16864   0.307E-01    0.114E+01
DAV:  45    -0.279283084032E+03    0.56058E+00   -0.10052E-01 25656   0.110E+00    0.884E+00
DAV:  46    -0.279141940926E+03    0.14114E+00   -0.62126E-02 16480   0.469E-01    0.806E+00
DAV:  47    -0.279548592796E+03   -0.40665E+00   -0.19118E+00 19824   0.308E+00    0.185E+01
DAV:  48    -0.278647697996E+03    0.90089E+00   -0.20556E-01 19760   0.149E+00    0.163E+01
DAV:  49    -0.277800917578E+03    0.84678E+00   -0.58601E-01 18968   0.173E+00    0.108E+01
DAV:  50    -0.277826723240E+03   -0.25806E-01   -0.13711E-01 15984   0.839E-01    0.955E+00
DAV:  51    -0.277804271332E+03    0.22452E-01   -0.76468E-02 15816   0.566E-01    0.761E+00
DAV:  52    -0.277554695000E+03    0.24958E+00   -0.19076E-01 23392   0.162E+00    0.460E+00
DAV:  53    -0.277500193760E+03    0.54501E-01   -0.38552E-02 20336   0.726E-01    0.451E+00
DAV:  54    -0.277467763114E+03    0.32431E-01   -0.45339E-02 15864   0.642E-01    0.362E+00
DAV:  55    -0.277454945312E+03    0.12818E-01   -0.53496E-02 19416   0.564E-01    0.536E+00
DAV:  56    -0.277450473100E+03    0.44722E-02   -0.34751E-02 16848   0.550E-01    0.418E+00
DAV:  57    -0.277428242896E+03    0.22230E-01   -0.15998E-02 20616   0.454E-01    0.281E+00
DAV:  58    -0.277446252997E+03   -0.18010E-01   -0.16608E-02 16080   0.273E-01    0.232E+00
DAV:  59    -0.277521355137E+03   -0.75102E-01   -0.11913E-02 17784   0.253E-01    0.177E+00
DAV:  60    -0.277552989107E+03   -0.31634E-01   -0.12458E-02 16688   0.305E-01
 -----------------------------------------------------------------------------
|                                                                             |
|           W    W    AA    RRRRR   N    N  II  N    N   GGGG   !!!           |
|           W    W   A  A   R    R  NN   N  II  NN   N  G    G  !!!           |
|           W    W  A    A  R    R  N N  N  II  N N  N  G       !!!           |
|           W WW W  AAAAAA  RRRRR   N  N N  II  N  N N  G  GGG   !            |
|           WW  WW  A    A  R   R   N   NN  II  N   NN  G    G                |
|           W    W  A    A  R    R  N    N  II  N    N   GGGG   !!!           |
|                                                                             |
|     The electronic self-consistency was not achieved in the given           |
|     number of steps (NELM). The forces and other quantities evaluated       |
|     might not be reliable so examine the results carefully. If you find     |
|     spurious results, we suggest increasing NELM, if you were close to      |
|     convergence or switching to a different ALGO or adjusting the           |
|     density mixing parameters otherwise.                                    |
|                                                                             |
 -----------------------------------------------------------------------------

   6 F= -.37780044E+03 E0= -.37760449E+03  d E =-.274554E+03
 curvature:  -0.84 expect dE=-0.448E+03 dE for cont linesearch -0.374E+01
 trial: gam= 0.84506 g(F)=  0.532E+03 g(S)=  0.000E+00 ort = 0.715E+02 (trialstep = 0.602E+00)
 search vector abs. value=  0.148E+04
 bond charge predicted
       N       E                     dE             d eps       ncg     rms          rms(c)
DAV:   1     0.847201882939E+03    0.11247E+04   -0.11730E+05 14688   0.586E+02    0.578E+02
DAV:   2    -0.230934681727E+04   -0.31565E+04   -0.13268E+04 15616   0.315E+02    0.500E+02
DAV:   3    -0.243719013515E+05   -0.22063E+05   -0.19257E+05 23360   0.677E+02    0.605E+03
DAV:   4    -0.278242778487E+05   -0.34524E+04   -0.41869E+04 23192   0.340E+02    0.380E+03
DAV:   5    -0.179878516987E+04    0.26025E+05   -0.51973E+04 23040   0.253E+02    0.934E+02
DAV:   6     0.171789616447E+03    0.19706E+04   -0.35057E+04 21880   0.203E+02    0.921E+02
DAV:   7    -0.180334223682E+04   -0.19751E+04   -0.20090E+04 21168   0.196E+02    0.397E+02
DAV:   8    -0.133242317195E+04    0.47092E+03   -0.29431E+03 21552   0.322E+02    0.501E+02
DAV:   9    -0.934484315990E+03    0.39794E+03   -0.21026E+03 16112   0.135E+02    0.331E+02
DAV:  10    -0.704810436431E+03    0.22967E+03   -0.54870E+02 18456   0.128E+02    0.258E+02
DAV:  11    -0.607134048277E+03    0.97676E+02   -0.42191E+02 19496   0.956E+01    0.279E+02
DAV:  12    -0.580367272351E+03    0.26767E+02   -0.17836E+02 15672   0.472E+01    0.231E+02
DAV:  13    -0.569344839251E+03    0.11022E+02   -0.64876E+01 18928   0.196E+01    0.231E+02
DAV:  14    -0.571034852562E+03   -0.16900E+01   -0.12340E+01 21536   0.554E+00    0.228E+02
DAV:  15    -0.570179892601E+03    0.85496E+00   -0.67967E-01 17656   0.174E+00    0.228E+02
DAV:  16    -0.566236994964E+03    0.39429E+01   -0.34476E+00 21400   0.707E+00    0.217E+02
DAV:  17    -0.565527800961E+03    0.70919E+00   -0.76232E+00 22808   0.140E+01    0.208E+02
DAV:  18    -0.544392681885E+03    0.21135E+02   -0.21749E+01 21376   0.273E+01    0.151E+02
DAV:  19    -0.543165306468E+03    0.12274E+01   -0.75983E+00 20600   0.109E+01    0.146E+02
DAV:  20    -0.539217942431E+03    0.39474E+01   -0.32596E+01 16496   0.195E+01    0.915E+01
DAV:  21    -0.568134020912E+03   -0.28916E+02   -0.22200E+01 25400   0.144E+01    0.114E+02
DAV:  22    -0.581517026457E+03   -0.13383E+02   -0.29443E+01 21984   0.243E+01    0.111E+02
DAV:  23    -0.577982884253E+03    0.35341E+01   -0.96590E+00 19392   0.480E+00    0.107E+02
DAV:  24    -0.578442277861E+03   -0.45939E+00   -0.58678E-01 20216   0.154E+00    0.109E+02
DAV:  25    -0.579388702292E+03   -0.94642E+00   -0.12572E+00 17664   0.239E+00    0.107E+02
DAV:  26    -0.570256429820E+03    0.91323E+01   -0.17713E+00 20168   0.356E+00    0.109E+02
DAV:  27    -0.547933689990E+03    0.22323E+02   -0.67009E+00 24024   0.103E+01    0.804E+01
DAV:  28    -0.539644226161E+03    0.82895E+01   -0.11113E+01 18368   0.659E+00    0.680E+01
DAV:  29    -0.538575033287E+03    0.10692E+01   -0.25958E+00 16384   0.351E+00    0.646E+01
DAV:  30    -0.537544887540E+03    0.10301E+01   -0.58885E-01 19512   0.145E+00    0.613E+01
DAV:  31    -0.534667532062E+03    0.28774E+01   -0.15260E+00 15768   0.374E+00    0.515E+01
DAV:  32    -0.531948742446E+03    0.27188E+01   -0.26842E+00 16888   0.531E+00    0.377E+01
DAV:  33    -0.531571051711E+03    0.37769E+00   -0.10217E+00 21408   0.166E+00    0.347E+01
DAV:  34    -0.531624819582E+03   -0.53768E-01   -0.11124E-01 15736   0.782E-01    0.346E+01
DAV:  35    -0.529849043568E+03    0.17758E+01   -0.11617E+00 22216   0.304E+00    0.329E+01
DAV:  36    -0.529410925902E+03    0.43812E+00   -0.30189E-01 18872   0.144E+00    0.299E+01
DAV:  37    -0.528693329759E+03    0.71760E+00   -0.26459E-01 17800   0.109E+00    0.284E+01
DAV:  38    -0.528263946770E+03    0.42938E+00   -0.16776E-01 18624   0.104E+00    0.282E+01
DAV:  39    -0.527706734733E+03    0.55721E+00   -0.24165E-01 20448   0.113E+00    0.291E+01
DAV:  40    -0.527357159007E+03    0.34958E+00   -0.56599E-02 17792   0.549E-01    0.285E+01
DAV:  41    -0.527107746955E+03    0.24941E+00   -0.26279E-02 21360   0.531E-01    0.286E+01
DAV:  42    -0.526748350187E+03    0.35940E+00   -0.10128E-01 19200   0.954E-01    0.259E+01
DAV:  43    -0.526507714590E+03    0.24064E+00   -0.32483E-02 19264   0.430E-01    0.249E+01
DAV:  44    -0.526176068754E+03    0.33165E+00   -0.33484E-02 20640   0.322E-01    0.243E+01
DAV:  45    -0.525839747788E+03    0.33632E+00   -0.49852E-02 19448   0.561E-01    0.226E+01
DAV:  46    -0.525693739545E+03    0.14601E+00   -0.26321E-02 16320   0.263E-01    0.218E+01
DAV:  47    -0.525589849888E+03    0.10389E+00   -0.24483E-01 15704   0.176E+00    0.254E+01
DAV:  48    -0.525576765146E+03    0.13085E-01   -0.45188E-02 17320   0.667E-01    0.241E+01
DAV:  49    -0.525419016277E+03    0.15775E+00   -0.25829E-02 16968   0.525E-01    0.213E+01
DAV:  50    -0.525292516076E+03    0.12650E+00   -0.30532E-02 22720   0.759E-01    0.185E+01
DAV:  51    -0.525046242373E+03    0.24627E+00   -0.73208E-02 18112   0.743E-01    0.147E+01
DAV:  52    -0.524747012245E+03    0.29923E+00   -0.36938E-01 19576   0.196E+00    0.457E+00
DAV:  53    -0.524752229088E+03   -0.52168E-02   -0.12232E-01 15456   0.779E-01    0.410E+00
DAV:  54    -0.524742718112E+03    0.95110E-02   -0.13170E-02 16768   0.287E-01    0.340E+00
DAV:  55    -0.524740511841E+03    0.22063E-02   -0.12595E-02 18576   0.252E-01    0.331E+00
DAV:  56    -0.524748566937E+03   -0.80551E-02   -0.43160E-03 17824   0.217E-01    0.351E+00
DAV:  57    -0.524756276602E+03   -0.77097E-02   -0.15721E-02 23640   0.673E-01    0.453E+00
DAV:  58    -0.524751223897E+03    0.50527E-02   -0.62964E-03 19592   0.447E-01    0.335E+00
DAV:  59    -0.524751089296E+03    0.13460E-03   -0.17608E-03 15920   0.899E-02    0.343E+00
DAV:  60    -0.524751103336E+03   -0.14039E-04   -0.16856E-04 18520   0.275E-02
 -----------------------------------------------------------------------------
|                                                                             |
|           W    W    AA    RRRRR   N    N  II  N    N   GGGG   !!!           |
|           W    W   A  A   R    R  NN   N  II  NN   N  G    G  !!!           |
|           W    W  A    A  R    R  N N  N  II  N N  N  G       !!!           |
|           W WW W  AAAAAA  RRRRR   N  N N  II  N  N N  G  GGG   !            |
|           WW  WW  A    A  R   R   N   NN  II  N   NN  G    G                |
|           W    W  A    A  R    R  N    N  II  N    N   GGGG   !!!           |
|                                                                             |
|     The electronic self-consistency was not achieved in the given           |
|     number of steps (NELM). The forces and other quantities evaluated       |
|     might not be reliable so examine the results carefully. If you find     |
|     spurious results, we suggest increasing NELM, if you were close to      |
|     convergence or switching to a different ALGO or adjusting the           |
|     density mixing parameters otherwise.                                    |
|                                                                             |
 -----------------------------------------------------------------------------

   7 F= -.62054700E+03 E0= -.62037874E+03  d E =-.242747E+03
 trial-energy change: -242.746559  1 .order -256.494454 -356.774884 -156.214025
 step:   1.0709(harm=  1.0709)  dis= 0.47080  next Energy=  -695.131344 (dE=-0.317E+03)
 bond charge predicted
       N       E                     dE             d eps       ncg     rms          rms(c)
DAV:   1    -0.556359542883E+02    0.46912E+03   -0.66432E+04 14752   0.402E+02    0.270E+02
DAV:   2    -0.127968807271E+04   -0.12241E+04   -0.56658E+03 15544   0.194E+02    0.263E+02
DAV:   3    -0.820987853383E+04   -0.69302E+04   -0.25216E+04 20672   0.455E+02    0.133E+03
DAV:   4    -0.895163464191E+04   -0.74176E+03   -0.12131E+04 22224   0.137E+02    0.144E+03
DAV:   5    -0.790818525299E+04    0.10434E+04   -0.28506E+03 20752   0.621E+01    0.120E+03
DAV:   6    -0.141126644727E+04    0.64969E+04   -0.11202E+04 23456   0.109E+02    0.413E+02
DAV:   7    -0.690477685568E+03    0.72079E+03   -0.34353E+03 21224   0.152E+02    0.205E+02
DAV:   8    -0.964437370754E+03   -0.27396E+03   -0.14051E+03 16976   0.183E+02    0.251E+02
DAV:   9    -0.113363850978E+04   -0.16920E+03   -0.13509E+03 19624   0.123E+02    0.239E+02
DAV:  10    -0.875112126013E+03    0.25853E+03   -0.43537E+02 16904   0.921E+01    0.197E+02
DAV:  11    -0.688186262907E+03    0.18693E+03   -0.16177E+02 17272   0.656E+01    0.135E+02
DAV:  12    -0.633889451876E+03    0.54297E+02   -0.11182E+02 18096   0.410E+01    0.119E+02
DAV:  13    -0.632949568640E+03    0.93988E+00   -0.50851E+01 20224   0.153E+01    0.120E+02
DAV:  14    -0.626064122540E+03    0.68854E+01   -0.83041E+00 20008   0.705E+00    0.105E+02
DAV:  15    -0.625909315268E+03    0.15481E+00   -0.20424E+00 19208   0.250E+00    0.105E+02
DAV:  16    -0.625744334822E+03    0.16498E+00   -0.30538E-01 23688   0.128E+00    0.104E+02
DAV:  17    -0.631120186557E+03   -0.53759E+01   -0.30221E+00 26280   0.419E+00    0.109E+02
DAV:  18    -0.632554347114E+03   -0.14342E+01   -0.49516E-01 22248   0.163E+00    0.108E+02
DAV:  19    -0.649107535950E+03   -0.16553E+02   -0.41033E+00 17672   0.107E+01    0.102E+02
DAV:  20    -0.644517579720E+03    0.45900E+01   -0.80406E+00 23920   0.878E+00    0.810E+01
DAV:  21    -0.625816452764E+03    0.18701E+02   -0.12321E+01 20464   0.189E+01    0.555E+01
DAV:  22    -0.652926271799E+03   -0.27110E+02   -0.22226E+01 23888   0.166E+01    0.104E+02
DAV:  23    -0.662949224003E+03   -0.10023E+02   -0.89950E+00 15776   0.690E+00    0.116E+02
DAV:  24    -0.662629987397E+03    0.31924E+00   -0.77499E-01 17440   0.188E+00    0.116E+02
DAV:  25    -0.664550651978E+03   -0.19207E+01   -0.44699E-01 20928   0.267E+00    0.120E+02
DAV:  26    -0.642538917008E+03    0.22012E+02   -0.64308E+00 23328   0.487E+00    0.883E+01
DAV:  27    -0.636044677915E+03    0.64942E+01   -0.22215E+00 17704   0.306E+00    0.777E+01
DAV:  28    -0.625337785689E+03    0.10707E+02   -0.57614E+00 18632   0.599E+00    0.511E+01
DAV:  29    -0.624095181055E+03    0.12426E+01   -0.19070E+00 16344   0.297E+00    0.451E+01
DAV:  30    -0.623306430050E+03    0.78875E+00   -0.35051E-01 17632   0.144E+00    0.431E+01
DAV:  31    -0.619947288507E+03    0.33591E+01   -0.25090E+00 20224   0.326E+00    0.322E+01
DAV:  32    -0.617912008539E+03    0.20353E+01   -0.31192E+00 17872   0.415E+00    0.234E+01
DAV:  33    -0.617853163049E+03    0.58845E-01   -0.18366E+00 16176   0.318E+00    0.231E+01
DAV:  34    -0.617451592452E+03    0.40157E+00   -0.50937E-01 17504   0.156E+00    0.222E+01
DAV:  35    -0.617498027935E+03   -0.46435E-01   -0.10663E+00 20928   0.183E+00    0.223E+01
DAV:  36    -0.617284211739E+03    0.21382E+00   -0.46231E-01 15656   0.153E+00    0.199E+01
DAV:  37    -0.616603442595E+03    0.68077E+00   -0.36088E-01 17032   0.294E+00    0.173E+01
DAV:  38    -0.616444519864E+03    0.15892E+00   -0.17996E-01 20048   0.847E-01    0.154E+01
DAV:  39    -0.616334168329E+03    0.11035E+00   -0.87231E-02 19032   0.120E+00    0.141E+01
DAV:  40    -0.616509256498E+03   -0.17509E+00   -0.69296E-02 18584   0.644E-01    0.148E+01
DAV:  41    -0.616295229340E+03    0.21403E+00   -0.15911E-01 21384   0.835E-01    0.123E+01
DAV:  42    -0.616111846656E+03    0.18338E+00   -0.10356E-01 18048   0.969E-01    0.103E+01
DAV:  43    -0.616027196251E+03    0.84650E-01   -0.10411E-01 18408   0.600E-01    0.967E+00
DAV:  44    -0.616032306901E+03   -0.51106E-02   -0.17172E-02 17064   0.231E-01    0.975E+00
DAV:  45    -0.616038436320E+03   -0.61294E-02   -0.28796E-03 20664   0.155E-01    0.970E+00
DAV:  46    -0.616107006212E+03   -0.68570E-01   -0.74882E-02 17288   0.701E-01    0.110E+01
DAV:  47    -0.618181904940E+03   -0.20749E+01   -0.24879E+00 20224   0.522E+00    0.266E+01
DAV:  48    -0.616817533735E+03    0.13644E+01   -0.60781E-01 18224   0.317E+00    0.170E+01
DAV:  49    -0.616508188057E+03    0.30935E+00   -0.14010E-01 19096   0.149E+00    0.135E+01
DAV:  50    -0.616299308458E+03    0.20888E+00   -0.67365E-02 18280   0.610E-01    0.115E+01
DAV:  51    -0.616300161726E+03   -0.85327E-03   -0.15323E-01 17504   0.892E-01    0.120E+01
DAV:  52    -0.615993611287E+03    0.30655E+00   -0.13827E+00 20824   0.324E+00    0.850E+00
DAV:  53    -0.615932035625E+03    0.61576E-01   -0.17740E-01 18192   0.962E-01    0.714E+00
DAV:  54    -0.615881775168E+03    0.50260E-01   -0.64738E-02 15384   0.593E-01    0.601E+00
DAV:  55    -0.615805750708E+03    0.76024E-01   -0.12323E-01 19336   0.909E-01    0.344E+00
DAV:  56    -0.615804758439E+03    0.99227E-03   -0.47227E-02 15832   0.547E-01    0.289E+00
DAV:  57    -0.615823059141E+03   -0.18301E-01   -0.70972E-02 20456   0.651E-01    0.354E+00
DAV:  58    -0.615787078191E+03    0.35981E-01   -0.24610E-02 15856   0.471E-01    0.268E+00
DAV:  59    -0.615764816919E+03    0.22261E-01   -0.20455E-02 20184   0.262E-01    0.223E+00
DAV:  60    -0.615750168639E+03    0.14648E-01   -0.97113E-03 19376   0.260E-01
 -----------------------------------------------------------------------------
|                                                                             |
|           W    W    AA    RRRRR   N    N  II  N    N   GGGG   !!!           |
|           W    W   A  A   R    R  NN   N  II  NN   N  G    G  !!!           |
|           W    W  A    A  R    R  N N  N  II  N N  N  G       !!!           |
|           W WW W  AAAAAA  RRRRR   N  N N  II  N  N N  G  GGG   !            |
|           WW  WW  A    A  R   R   N   NN  II  N   NN  G    G                |
|           W    W  A    A  R    R  N    N  II  N    N   GGGG   !!!           |
|                                                                             |
|     The electronic self-consistency was not achieved in the given           |
|     number of steps (NELM). The forces and other quantities evaluated       |
|     might not be reliable so examine the results carefully. If you find     |
|     spurious results, we suggest increasing NELM, if you were close to      |
|     convergence or switching to a different ALGO or adjusting the           |
|     density mixing parameters otherwise.                                    |
|                                                                             |
 -----------------------------------------------------------------------------

   8 F= -.70845721E+03 E0= -.70832813E+03  d E =-.330657E+03
 curvature:  -1.33 expect dE=-0.296E+03 dE for cont linesearch -0.157E+02
 ZBRENT: increasing intervall
 opt :   2.0087  next Energy=  -712.653803 (dE=-0.335E+03)
 bond charge predicted
       N       E                     dE             d eps       ncg     rms          rms(c)
DAV:   1     0.422209146657E+04    0.48379E+04   -0.26374E+05 16440   0.884E+02    0.217E+03
DAV:   2    -0.243679275712E+04   -0.66589E+04   -0.46683E+04 15704   0.535E+02    0.155E+03
DAV:   3    -0.161033111869E+05   -0.13667E+05   -0.12086E+05 22048   0.764E+02    0.484E+03
DAV:   4    -0.131061237752E+05    0.29972E+04   -0.35807E+04 23320   0.302E+02    0.328E+03
DAV:   5    -0.324803507336E+05   -0.19374E+05   -0.31659E+05 27080   0.711E+02    0.676E+03
DAV:   6    -0.310805811710E+05    0.13998E+04   -0.67541E+04 24376   0.446E+02    0.434E+03
DAV:   7    -0.274667997806E+05    0.36138E+04   -0.82006E+05 25496   0.779E+02    0.628E+03
DAV:   8    -0.204142172645E+05    0.70526E+04   -0.10671E+05 21336   0.526E+02    0.234E+03
DAV:   9    -0.145339598036E+04    0.18961E+05   -0.20966E+05 24696   0.631E+02    0.285E+03
DAV:  10    -0.294732789888E+04   -0.14939E+04   -0.49640E+04 20304   0.379E+02    0.992E+02
DAV:  11    -0.498469572517E+03    0.24489E+04   -0.20569E+04 19472   0.329E+02    0.127E+03
DAV:  12    -0.276103588461E+04   -0.22626E+04   -0.13373E+04 25200   0.245E+02    0.490E+02
DAV:  13    -0.120088810748E+04    0.15601E+04   -0.23983E+03 19464   0.220E+02    0.351E+02
DAV:  14    -0.978995259868E+03    0.22189E+03   -0.17985E+03 17272   0.154E+02    0.264E+02
DAV:  15    -0.833994682910E+03    0.14500E+03   -0.78104E+02 17864   0.950E+01    0.258E+02
DAV:  16    -0.791037544412E+03    0.42957E+02   -0.30347E+02 21216   0.346E+01    0.259E+02
DAV:  17    -0.773139067155E+03    0.17898E+02   -0.46882E+01 19520   0.230E+01    0.253E+02
DAV:  18    -0.754691648853E+03    0.18447E+02   -0.18685E+01 21208   0.902E+00    0.249E+02
DAV:  19    -0.748876650640E+03    0.58150E+01   -0.16279E+01 23448   0.139E+01    0.244E+02
DAV:  20    -0.758940751195E+03   -0.10064E+02   -0.22792E+01 24120   0.183E+01    0.255E+02
DAV:  21    -0.717912585260E+03    0.41028E+02   -0.42032E+01 22448   0.215E+01    0.231E+02
DAV:  22    -0.709934482764E+03    0.79781E+01   -0.21705E+01 19736   0.184E+01    0.222E+02
DAV:  23    -0.735463566341E+03   -0.25529E+02   -0.47711E+01 23344   0.340E+01    0.198E+02
DAV:  24    -0.722836363423E+03    0.12627E+02   -0.31361E+01 23800   0.149E+01    0.168E+02
DAV:  25    -0.716001539115E+03    0.68348E+01   -0.51153E+00 16968   0.615E+00    0.160E+02
DAV:  26    -0.707191684452E+03    0.88099E+01   -0.24376E+00 18744   0.515E+00    0.148E+02
DAV:  27    -0.696011606949E+03    0.11180E+02   -0.69301E+00 24656   0.865E+00    0.120E+02
DAV:  28    -0.694603634227E+03    0.14080E+01   -0.42603E+00 18192   0.500E+00    0.101E+02
DAV:  29    -0.691811986340E+03    0.27916E+01   -0.93147E-01 18832   0.367E+00    0.915E+01
DAV:  30    -0.691148170948E+03    0.66382E+00   -0.12267E+00 17720   0.252E+00    0.771E+01
DAV:  31    -0.690466360008E+03    0.68181E+00   -0.23225E+00 25008   0.348E+00    0.653E+01
DAV:  32    -0.689989290729E+03    0.47707E+00   -0.40602E-01 17160   0.122E+00    0.631E+01
DAV:  33    -0.690012738419E+03   -0.23448E-01   -0.36559E-02 15912   0.533E-01    0.620E+01
DAV:  34    -0.689794691524E+03    0.21805E+00   -0.19088E-02 22704   0.354E-01    0.596E+01
DAV:  35    -0.689400826807E+03    0.39386E+00   -0.33447E-01 20608   0.180E+00    0.519E+01
DAV:  36    -0.689250886060E+03    0.14994E+00   -0.13672E-01 19416   0.939E-01    0.496E+01
DAV:  37    -0.689306810345E+03   -0.55924E-01   -0.35928E-02 15640   0.560E-01    0.497E+01
DAV:  38    -0.689744532496E+03   -0.43772E+00   -0.41121E-01 20792   0.160E+00    0.604E+01
DAV:  39    -0.689729613005E+03    0.14919E-01   -0.86519E-01 17392   0.181E+00    0.837E+01
DAV:  40    -0.689820475040E+03   -0.90862E-01   -0.28043E-01 15296   0.131E+00    0.907E+01
DAV:  41    -0.689507879026E+03    0.31260E+00   -0.10400E-01 15608   0.831E-01    0.955E+01
DAV:  42    -0.689114314198E+03    0.39356E+00   -0.15268E-01 20888   0.846E-01    0.988E+01
DAV:  43    -0.687818064534E+03    0.12962E+01   -0.86496E-01 21448   0.263E+00    0.899E+01
DAV:  44    -0.687003815511E+03    0.81425E+00   -0.36901E-01 19824   0.142E+00    0.894E+01
DAV:  45    -0.686682505180E+03    0.32131E+00   -0.73748E-02 20192   0.636E-01    0.874E+01
DAV:  46    -0.686617141095E+03    0.65364E-01   -0.17181E-02 15992   0.238E-01    0.867E+01
DAV:  47    -0.689633272241E+03   -0.30161E+01   -0.58779E+00 22376   0.868E+00    0.429E+01
DAV:  48    -0.690077336451E+03   -0.44406E+00   -0.15998E+00 24040   0.346E+00    0.435E+01
DAV:  49    -0.691646652696E+03   -0.15693E+01   -0.15509E+00 20240   0.317E+00    0.619E+01
DAV:  50    -0.686888218438E+03    0.47584E+01   -0.11335E+00 19496   0.440E+00    0.407E+01
DAV:  51    -0.687627673505E+03   -0.73946E+00   -0.90169E-01 18392   0.159E+00    0.429E+01
DAV:  52    -0.687223631949E+03    0.40404E+00   -0.27772E+00 21912   0.483E+00    0.233E+01
DAV:  53    -0.685481430848E+03    0.17422E+01   -0.94817E-01 19512   0.421E+00    0.133E+01
DAV:  54    -0.685520068287E+03   -0.38637E-01   -0.30439E-01 17160   0.116E+00    0.129E+01
DAV:  55    -0.685150741539E+03    0.36933E+00   -0.57424E-01 22536   0.165E+00    0.808E+00
DAV:  56    -0.685312878462E+03   -0.16214E+00   -0.24823E-01 16168   0.174E+00    0.956E+00
DAV:  57    -0.685242851537E+03    0.70027E-01   -0.24472E-01 23608   0.181E+00    0.827E+00
DAV:  58    -0.685217141173E+03    0.25710E-01   -0.11474E-01 21472   0.141E+00    0.708E+00
DAV:  59    -0.685039379413E+03    0.17776E+00   -0.16243E-01 21880   0.144E+00    0.322E+00
DAV:  60    -0.685037379600E+03    0.19998E-02   -0.47644E-02 18200   0.703E-01
 -----------------------------------------------------------------------------
|                                                                             |
|           W    W    AA    RRRRR   N    N  II  N    N   GGGG   !!!           |
|           W    W   A  A   R    R  NN   N  II  NN   N  G    G  !!!           |
|           W    W  A    A  R    R  N N  N  II  N N  N  G       !!!           |
|           W WW W  AAAAAA  RRRRR   N  N N  II  N  N N  G  GGG   !            |
|           WW  WW  A    A  R   R   N   NN  II  N   NN  G    G                |
|           W    W  A    A  R    R  N    N  II  N    N   GGGG   !!!           |
|                                                                             |
|     The electronic self-consistency was not achieved in the given           |
|     number of steps (NELM). The forces and other quantities evaluated       |
|     might not be reliable so examine the results carefully. If you find     |
|     spurious results, we suggest increasing NELM, if you were close to      |
|     convergence or switching to a different ALGO or adjusting the           |
|     density mixing parameters otherwise.                                    |
|                                                                             |
 -----------------------------------------------------------------------------

   9 F= -.77234862E+03 E0= -.77220625E+03  d E =-.394548E+03
 curvature:  -0.36 expect dE=-0.101E+03 dE for cont linesearch -0.142E+00
 trial: gam= 0.70838 g(F)=  0.285E+03 g(S)=  0.000E+00 ort = 0.243E+02 (trialstep = 0.883E+00)
 search vector abs. value=  0.106E+04
 bond charge predicted
       N       E                     dE             d eps       ncg     rms          rms(c)
DAV:   1     0.110198171783E+04    0.17870E+04   -0.14866E+05 14680   0.690E+02    0.731E+02
DAV:   2    -0.411725630913E+04   -0.52192E+04   -0.20984E+04 19568   0.458E+02    0.650E+02
DAV:   3    -0.130870954574E+05   -0.89698E+04   -0.86395E+04 21192   0.556E+02    0.330E+03
DAV:   4    -0.155247026323E+05   -0.24376E+04   -0.21526E+04 22808   0.217E+02    0.254E+03
DAV:   5    -0.119689990356E+04    0.14328E+05   -0.49697E+04 22288   0.214E+02    0.757E+02
DAV:   6    -0.513726236235E+04   -0.39404E+04   -0.22365E+04 23952   0.415E+02    0.742E+02
DAV:   7    -0.246952324902E+04    0.26677E+04   -0.15970E+04 19384   0.412E+02    0.625E+02
DAV:   8    -0.163705494657E+04    0.83247E+03   -0.57648E+03 15800   0.285E+02    0.473E+02
DAV:   9    -0.893752573299E+03    0.74330E+03   -0.36091E+03 20712   0.193E+02    0.436E+02
DAV:  10    -0.950867685082E+03   -0.57115E+02   -0.14550E+03 21848   0.109E+02    0.427E+02
DAV:  11    -0.896859705375E+03    0.54008E+02   -0.30668E+02 20088   0.556E+01    0.392E+02
DAV:  12    -0.892114955333E+03    0.47448E+01   -0.81742E+01 16896   0.414E+01    0.375E+02
DAV:  13    -0.890964244074E+03    0.11507E+01   -0.71616E+01 18304   0.411E+01    0.348E+02
DAV:  14    -0.886805699081E+03    0.41585E+01   -0.28824E+01 21464   0.100E+01    0.348E+02
DAV:  15    -0.890022968433E+03   -0.32173E+01   -0.93102E+00 20792   0.120E+01    0.341E+02
DAV:  16    -0.885638547997E+03    0.43844E+01   -0.68549E+00 20280   0.743E+00    0.338E+02
DAV:  17    -0.885827756386E+03   -0.18921E+00   -0.12039E+00 18352   0.198E+00    0.338E+02
DAV:  18    -0.879110578140E+03    0.67172E+01   -0.22869E+00 25880   0.643E+00    0.328E+02
DAV:  19    -0.878113066703E+03    0.99751E+00   -0.24931E+00 18360   0.495E+00    0.327E+02
DAV:  20    -0.921950203896E+03   -0.43837E+02   -0.26134E+01 25616   0.245E+01    0.257E+02
DAV:  21    -0.880597795630E+03    0.41352E+02   -0.31693E+01 20176   0.207E+01    0.193E+02
DAV:  22    -0.988999460859E+03   -0.10840E+03   -0.26074E+01 22296   0.242E+01    0.189E+02
DAV:  23    -0.103062956091E+04   -0.41630E+02   -0.25899E+01 18792   0.108E+01    0.200E+02
DAV:  24    -0.100490141855E+04    0.25728E+02   -0.16574E+01 20792   0.849E+00    0.190E+02
DAV:  25    -0.977034007780E+03    0.27867E+02   -0.81480E+00 19576   0.744E+00    0.171E+02
DAV:  26    -0.933853441512E+03    0.43181E+02   -0.16845E+01 17432   0.111E+01    0.154E+02
DAV:  27    -0.907521251400E+03    0.26332E+02   -0.12676E+01 21752   0.689E+00    0.129E+02
DAV:  28    -0.898654095996E+03    0.88672E+01   -0.38065E+00 16896   0.393E+00    0.124E+02
DAV:  29    -0.901140037820E+03   -0.24859E+01   -0.77390E-01 17536   0.193E+00    0.127E+02
DAV:  30    -0.898547751130E+03    0.25923E+01   -0.18033E-01 18008   0.105E+00    0.124E+02
DAV:  31    -0.891664699221E+03    0.68831E+01   -0.11750E+01 19888   0.111E+01    0.120E+02
DAV:  32    -0.887219308763E+03    0.44454E+01   -0.28328E+01 17144   0.110E+01    0.119E+02
DAV:  33    -0.887625754979E+03   -0.40645E+00   -0.55194E+00 15456   0.496E+00    0.117E+02
DAV:  34    -0.887119474606E+03    0.50628E+00   -0.55627E-01 23784   0.158E+00    0.117E+02
DAV:  35    -0.886164793748E+03    0.95468E+00   -0.16472E+00 21464   0.336E+00    0.121E+02
DAV:  36    -0.884328908227E+03    0.18359E+01   -0.76512E-01 16544   0.252E+00    0.121E+02
DAV:  37    -0.880563604852E+03    0.37653E+01   -0.43172E+00 25304   0.686E+00    0.131E+02
DAV:  38    -0.876599538118E+03    0.39641E+01   -0.21562E+00 19432   0.367E+00    0.131E+02
DAV:  39    -0.872144337037E+03    0.44552E+01   -0.68113E-01 16568   0.222E+00    0.126E+02
DAV:  40    -0.863799949175E+03    0.83444E+01   -0.13198E+00 18288   0.250E+00    0.120E+02
DAV:  41    -0.852199511500E+03    0.11600E+02   -0.32946E+00 16960   0.428E+00    0.110E+02
DAV:  42    -0.854765348010E+03   -0.25658E+01   -0.12377E+00 15024   0.270E+00    0.110E+02
DAV:  43    -0.850526219195E+03    0.42391E+01   -0.73673E-01 17216   0.221E+00    0.103E+02
DAV:  44    -0.842329728552E+03    0.81965E+01   -0.35043E+00 19128   0.373E+00    0.948E+01
DAV:  45    -0.842468702116E+03   -0.13897E+00   -0.13171E+00 15176   0.225E+00    0.934E+01
DAV:  46    -0.842077859420E+03    0.39084E+00   -0.12799E-01 25032   0.535E-01    0.924E+01
DAV:  47    -0.879556118447E+03   -0.37478E+02   -0.45524E+01 17744   0.179E+01    0.172E+02
DAV:  48    -0.881949784168E+03   -0.23937E+01   -0.19666E+01 15376   0.856E+00    0.168E+02
DAV:  49    -0.881011886521E+03    0.93790E+00   -0.15667E+00 20984   0.266E+00    0.168E+02
DAV:  50    -0.880844817409E+03    0.16707E+00   -0.28421E-01 19128   0.815E-01    0.167E+02
DAV:  51    -0.880667621671E+03    0.17720E+00   -0.14510E-02 21928   0.301E-01    0.167E+02
DAV:  52    -0.953187353822E+03   -0.72520E+02   -0.40761E+01 19824   0.225E+01    0.175E+02
DAV:  53    -0.951493785737E+03    0.16936E+01   -0.23175E+01 15136   0.998E+00    0.172E+02
DAV:  54    -0.929051173974E+03    0.22443E+02   -0.12604E+01 20864   0.120E+01    0.139E+02
DAV:  55    -0.952385180735E+03   -0.23334E+02   -0.14667E+01 21584   0.911E+00    0.131E+02
DAV:  56    -0.965669502821E+03   -0.13284E+02   -0.78683E+00 20088   0.502E+00    0.134E+02
DAV:  57    -0.932869092730E+03    0.32800E+02   -0.78208E+00 24864   0.133E+01    0.135E+02
DAV:  58    -0.941209962385E+03   -0.83409E+01   -0.68374E+00 19432   0.787E+00    0.139E+02
DAV:  59    -0.941393324904E+03   -0.18336E+00   -0.14449E+00 15576   0.236E+00    0.139E+02
DAV:  60    -0.939929824756E+03    0.14635E+01   -0.19748E-01 17952   0.174E+00
 -----------------------------------------------------------------------------
|                                                                             |
|           W    W    AA    RRRRR   N    N  II  N    N   GGGG   !!!           |
|           W    W   A  A   R    R  NN   N  II  NN   N  G    G  !!!           |
|           W    W  A    A  R    R  N N  N  II  N N  N  G       !!!           |
|           W WW W  AAAAAA  RRRRR   N  N N  II  N  N N  G  GGG   !            |
|           WW  WW  A    A  R   R   N   NN  II  N   NN  G    G                |
|           W    W  A    A  R    R  N    N  II  N    N   GGGG   !!!           |
|                                                                             |
|     The electronic self-consistency was not achieved in the given           |
|     number of steps (NELM). The forces and other quantities evaluated       |
|     might not be reliable so examine the results carefully. If you find     |
|     spurious results, we suggest increasing NELM, if you were close to      |
|     convergence or switching to a different ALGO or adjusting the           |
|     density mixing parameters otherwise.                                    |
|                                                                             |
 -----------------------------------------------------------------------------

  10 F= -.10239266E+04 E0= -.10237714E+04  d E =-.251578E+03
 trial-energy change: -251.577996  1 .order -171.592215 -266.612708  -76.571722
 step:   0.9772(harm=  1.2393)  dis= 0.34313  next Energy= -1028.088895 (dE=-0.256E+03)
 bond charge predicted
       N       E                     dE             d eps       ncg     rms          rms(c)
DAV:   1    -0.952905128270E+03   -0.11512E+02   -0.14770E+03 14640   0.488E+01    0.145E+02
DAV:   2    -0.181826812758E+04   -0.86536E+03   -0.81531E+02 20960   0.160E+02    0.332E+02
DAV:   3    -0.287163695796E+04   -0.10534E+04   -0.21046E+03 23128   0.135E+02    0.380E+02
DAV:   4    -0.171085866145E+04    0.11608E+04   -0.31591E+03 22496   0.134E+02    0.291E+02
DAV:   5    -0.129124102936E+04    0.41962E+03   -0.99580E+02 21240   0.998E+01    0.203E+02
DAV:   6    -0.113140451181E+04    0.15984E+03   -0.57660E+02 21104   0.665E+01    0.155E+02
DAV:   7    -0.117366954315E+04   -0.42265E+02   -0.22573E+02 18344   0.568E+01    0.171E+02
DAV:   8    -0.123269143194E+04   -0.59022E+02   -0.25646E+02 22264   0.807E+01    0.239E+02
DAV:   9    -0.985119484858E+03    0.24757E+03   -0.13091E+02 21816   0.570E+01    0.119E+02
DAV:  10    -0.910498122710E+03    0.74621E+02   -0.64624E+01 19600   0.276E+01    0.103E+02
DAV:  11    -0.925746988058E+03   -0.15249E+02   -0.37002E+01 20536   0.298E+01    0.115E+02
DAV:  12    -0.893448743333E+03    0.32298E+02   -0.18760E+01 17192   0.110E+01    0.866E+01
DAV:  13    -0.893899137636E+03   -0.45039E+00   -0.77265E+00 20664   0.832E+00    0.869E+01
DAV:  14    -0.892192931576E+03    0.17062E+01   -0.66739E+00 21984   0.118E+01    0.813E+01
DAV:  15    -0.865812355549E+03    0.26381E+02   -0.11725E+01 23088   0.153E+01    0.564E+01
DAV:  16    -0.853293872122E+03    0.12518E+02   -0.73041E+00 23216   0.101E+01    0.472E+01
DAV:  17    -0.847245010542E+03    0.60489E+01   -0.51107E+00 21704   0.537E+00    0.416E+01
DAV:  18    -0.848193402429E+03   -0.94839E+00   -0.11547E+00 16120   0.250E+00    0.429E+01
DAV:  19    -0.853141773863E+03   -0.49484E+01   -0.29434E+00 21208   0.498E+00    0.534E+01
DAV:  20    -0.845122435191E+03    0.80193E+01   -0.30491E+00 25056   0.573E+00    0.390E+01
DAV:  21    -0.844949339587E+03    0.17310E+00   -0.40308E+00 19640   0.713E+00    0.342E+01
DAV:  22    -0.843184798274E+03    0.17645E+01   -0.20361E+00 16424   0.408E+00    0.276E+01
DAV:  23    -0.842144031721E+03    0.10408E+01   -0.85382E-01 24912   0.421E+00    0.200E+01
DAV:  24    -0.841999639579E+03    0.14439E+00   -0.38631E-01 15104   0.144E+00    0.198E+01
DAV:  25    -0.842029200662E+03   -0.29561E-01   -0.45961E-01 15824   0.231E+00    0.204E+01
DAV:  26    -0.840977513373E+03    0.10517E+01   -0.28357E-01 17064   0.142E+00    0.148E+01
DAV:  27    -0.840503563083E+03    0.47395E+00   -0.18868E-01 25016   0.107E+00    0.121E+01
DAV:  28    -0.840223111165E+03    0.28045E+00   -0.89336E-02 18368   0.651E-01    0.103E+01
DAV:  29    -0.840015775590E+03    0.20734E+00   -0.13410E-01 19176   0.697E-01    0.847E+00
DAV:  30    -0.839987354993E+03    0.28421E-01   -0.72292E-02 15528   0.691E-01    0.779E+00
DAV:  31    -0.839919204007E+03    0.68151E-01   -0.89959E-03 19264   0.285E-01    0.672E+00
DAV:  32    -0.839823357891E+03    0.95846E-01   -0.19772E-02 23424   0.290E-01    0.523E+00
DAV:  33    -0.839756817800E+03    0.66540E-01   -0.16709E-02 22168   0.470E-01    0.454E+00
DAV:  34    -0.839697575186E+03    0.59243E-01   -0.13595E-02 20008   0.258E-01    0.336E+00
DAV:  35    -0.839656530363E+03    0.41045E-01   -0.69830E-03 21152   0.171E-01    0.259E+00
DAV:  36    -0.839619292153E+03    0.37238E-01   -0.12505E-02 18224   0.283E-01    0.182E+00
DAV:  37    -0.839599157664E+03    0.20134E-01   -0.11177E-02 20312   0.203E-01    0.146E+00
DAV:  38    -0.839590999573E+03    0.81581E-02   -0.46150E-03 21984   0.188E-01    0.112E+00
DAV:  39    -0.839586347934E+03    0.46516E-02   -0.35952E-03 19424   0.136E-01    0.761E-01
DAV:  40    -0.839584885299E+03    0.14626E-02   -0.21460E-03 23296   0.121E-01    0.608E-01
DAV:  41    -0.839584757881E+03    0.12742E-03   -0.19245E-03 17464   0.114E-01    0.293E-01
DAV:  42    -0.839586433284E+03   -0.16754E-02   -0.73065E-04 17784   0.829E-02    0.446E-01
DAV:  43    -0.839588345748E+03   -0.19125E-02   -0.10294E-03 15960   0.976E-02    0.466E-01
DAV:  44    -0.839588149864E+03    0.19588E-03   -0.63992E-04 18944   0.579E-02    0.305E-01
DAV:  45    -0.839588321363E+03   -0.17150E-03   -0.28779E-04 16016   0.489E-02    0.232E-01
DAV:  46    -0.839588591653E+03   -0.27029E-03   -0.21112E-04 23536   0.373E-02    0.992E-02
DAV:  47    -0.839588809381E+03   -0.21773E-03   -0.13054E-04 19384   0.338E-02    0.114E-01
DAV:  48    -0.839588980194E+03   -0.17081E-03   -0.48031E-05 15168   0.181E-02    0.116E-01
DAV:  49    -0.839589087236E+03   -0.10704E-03   -0.25997E-05 14256   0.137E-02    0.690E-02
DAV:  50    -0.839589131928E+03   -0.44692E-04   -0.10977E-05  9376   0.722E-03    0.324E-02
DAV:  51    -0.839589204097E+03   -0.72169E-04   -0.11635E-05 10944   0.445E-03    0.207E-02
DAV:  52    -0.839589230309E+03   -0.26212E-04   -0.21641E-06  8368   0.349E-03    0.116E-02
DAV:  53    -0.839589253199E+03   -0.22890E-04   -0.19462E-06  8568   0.261E-03    0.534E-03
DAV:  54    -0.839589268013E+03   -0.14815E-04   -0.12825E-06  8224   0.189E-03    0.908E-03
DAV:  55    -0.839589273263E+03   -0.52496E-05   -0.89372E-07  8016   0.188E-03    0.652E-03
DAV:  56    -0.839589274753E+03   -0.14901E-05   -0.47198E-07  7696   0.104E-03
  11 F= -.92325382E+03 E0= -.92309338E+03  d E =-.150905E+03
 curvature:  -1.00 expect dE=-0.170E+02 dE for cont linesearch -0.275E+01
 ZBRENT: increasing intervall
 opt :   1.1648  next Energy=  -927.276583 (dE=-0.155E+03)
 bond charge predicted
       N       E                     dE             d eps       ncg     rms          rms(c)
DAV:   1    -0.833653678646E+03    0.59356E+01   -0.58669E+03 14720   0.989E+01    0.202E+01
DAV:   2    -0.872978050903E+03   -0.39324E+02   -0.17604E+02 17840   0.332E+01    0.757E+01
DAV:   3    -0.864580696685E+03    0.83974E+01   -0.40943E+01 15816   0.346E+01    0.521E+01
DAV:   4    -0.905691614140E+03   -0.41111E+02   -0.23980E+01 20280   0.343E+01    0.992E+01
DAV:   5    -0.868841076074E+03    0.36851E+02   -0.28226E+01 22096   0.244E+01    0.651E+01
DAV:   6    -0.857938538561E+03    0.10903E+02   -0.11755E+01 19392   0.132E+01    0.481E+01
DAV:   7    -0.858714852219E+03   -0.77631E+00   -0.58457E+00 18848   0.112E+01    0.515E+01
DAV:   8    -0.858747550101E+03   -0.32698E-01   -0.43733E+00 19040   0.105E+01    0.528E+01
DAV:   9    -0.852998800357E+03    0.57487E+01   -0.33586E+00 21568   0.911E+00    0.287E+01
DAV:  10    -0.849342902235E+03    0.36559E+01   -0.17573E+00 20696   0.547E+00    0.185E+01
DAV:  11    -0.849496382329E+03   -0.15348E+00   -0.12217E+00 23920   0.295E+00    0.176E+01
DAV:  12    -0.848632044880E+03    0.86434E+00   -0.61457E-01 17640   0.248E+00    0.989E+00
DAV:  13    -0.848341188760E+03    0.29086E+00   -0.87778E-01 23688   0.330E+00    0.436E+00
DAV:  14    -0.848282089787E+03    0.59099E-01   -0.11200E-01 16152   0.887E-01    0.335E+00
DAV:  15    -0.848273184928E+03    0.89049E-02   -0.19651E-02 17912   0.356E-01    0.303E+00
DAV:  16    -0.848249677369E+03    0.23508E-01   -0.18438E-02 25272   0.606E-01    0.235E+00
DAV:  17    -0.848254543879E+03   -0.48665E-02   -0.26090E-02 20872   0.774E-01    0.198E+00
DAV:  18    -0.848241069603E+03    0.13474E-01   -0.12809E-02 16848   0.420E-01    0.141E+00
DAV:  19    -0.848238301310E+03    0.27683E-02   -0.30012E-03 18424   0.219E-01    0.106E+00
DAV:  20    -0.848236537135E+03    0.17642E-02   -0.13918E-03 16312   0.165E-01    0.753E-01
DAV:  21    -0.848235368853E+03    0.11683E-02   -0.13404E-03 17096   0.145E-01    0.388E-01
DAV:  22    -0.848235350230E+03    0.18623E-04   -0.55673E-04 19872   0.871E-02    0.208E-01
DAV:  23    -0.848235400110E+03   -0.49880E-04   -0.27624E-04 15120   0.422E-02    0.165E-01
DAV:  24    -0.848235422869E+03   -0.22759E-04   -0.59546E-05 17344   0.262E-02    0.131E-01
DAV:  25    -0.848235389257E+03    0.33613E-04   -0.36091E-05 13896   0.268E-02    0.676E-02
DAV:  26    -0.848235392106E+03   -0.28498E-05   -0.16689E-05 11648   0.918E-03
  12 F= -.93124624E+03 E0= -.93109993E+03  d E =-.158898E+03
 curvature:  -1.46 expect dE=-0.211E+02 dE for cont linesearch -0.149E+01
 ZBRENT: increasing intervall
 opt :   1.5401  next Energy=  -935.689516 (dE=-0.163E+03)
 bond charge predicted
       N       E                     dE             d eps       ncg     rms          rms(c)
DAV:   1    -0.745825718870E+03    0.10241E+03   -0.24045E+04 14688   0.217E+02    0.584E+01
DAV:   2    -0.111080334881E+04   -0.36498E+03   -0.12135E+03 16720   0.973E+01    0.216E+02
DAV:   3    -0.991309642214E+03    0.11949E+03   -0.26355E+02 15504   0.805E+01    0.155E+02
DAV:   4    -0.124659569036E+04   -0.25529E+03   -0.13214E+02 20280   0.862E+01    0.180E+02
DAV:   5    -0.112588543317E+04    0.12071E+03   -0.13922E+02 20392   0.743E+01    0.203E+02
DAV:   6    -0.954239764822E+03    0.17165E+03   -0.93020E+01 19760   0.413E+01    0.113E+02
DAV:   7    -0.913540104434E+03    0.40700E+02   -0.42529E+01 18296   0.285E+01    0.912E+01
DAV:   8    -0.916033789669E+03   -0.24937E+01   -0.31505E+01 20744   0.300E+01    0.960E+01
DAV:   9    -0.884797628235E+03    0.31236E+02   -0.14176E+01 18104   0.211E+01    0.651E+01
DAV:  10    -0.866262394716E+03    0.18535E+02   -0.13272E+01 22488   0.145E+01    0.417E+01
DAV:  11    -0.862313457401E+03    0.39489E+01   -0.15812E+01 25024   0.194E+01    0.398E+01
DAV:  12    -0.861074715648E+03    0.12387E+01   -0.68893E+00 15864   0.586E+00    0.354E+01
DAV:  13    -0.860349142929E+03    0.72557E+00   -0.99859E-01 19112   0.322E+00    0.335E+01
DAV:  14    -0.861208388439E+03   -0.85925E+00   -0.97320E-01 22496   0.426E+00    0.344E+01
DAV:  15    -0.860877148522E+03    0.33124E+00   -0.33359E+00 17976   0.468E+00    0.297E+01
DAV:  16    -0.857365236124E+03    0.35119E+01   -0.37128E+00 19312   0.681E+00    0.166E+01
DAV:  17    -0.857441975804E+03   -0.76740E-01   -0.14547E+00 21080   0.336E+00    0.176E+01
DAV:  18    -0.857019374660E+03    0.42260E+00   -0.53502E-01 15712   0.169E+00    0.157E+01
DAV:  19    -0.856894273746E+03    0.12510E+00   -0.78148E-02 18592   0.771E-01    0.145E+01
[...]
DAV:  37    -0.856418046056E+03   -0.47754E-05   -0.36042E-05 15984   0.236E-02
  13 F= -.93816360E+03 E0= -.93800916E+03  d E =-.165815E+03
 curvature:  -4.34 expect dE=-0.851E+02 dE for cont linesearch -0.152E+00
 ZBRENT: extrapolating
 opt :   1.6253  next Energy=  -938.423388 (dE=-0.166E+03)
 bond charge predicted
       N       E                     dE             d eps       ncg     rms          rms(c)
DAV:   1    -0.855022273506E+03    0.13958E+01   -0.12002E+03 14640   0.435E+01    0.813E+00
DAV:   2    -0.862228790293E+03   -0.72065E+01   -0.23435E+01 18560   0.130E+01    0.366E+01
DAV:   3    -0.860033915063E+03    0.21949E+01   -0.59287E+00 15784   0.133E+01    0.242E+01
DAV:   4    -0.862772718794E+03   -0.27388E+01   -0.10172E+01 18616   0.119E+01    0.318E+01
DAV:   5    -0.861852181645E+03    0.92054E+00   -0.84692E+00 23240   0.110E+01    0.314E+01
DAV:   6    -0.859516467603E+03    0.23357E+01   -0.28120E+00 21640   0.827E+00    0.248E+01
DAV:   7    -0.858011479124E+03    0.15050E+01   -0.18007E+00 20472   0.617E+00    0.187E+01
DAV:   8    -0.858220273642E+03   -0.20879E+00   -0.13331E+00 23304   0.418E+00    0.166E+01
DAV:   9    -0.857530745171E+03    0.68953E+00   -0.13266E+00 20984   0.520E+00    0.112E+01
DAV:  10    -0.857054929481E+03    0.47582E+00   -0.67663E-01 21624   0.231E+00    0.339E+00
DAV:  11    -0.857054222029E+03    0.70745E-03   -0.81456E-02 20168   0.876E-01    0.325E+00
DAV:  12    -0.857055779757E+03   -0.15577E-02   -0.42225E-02 17416   0.737E-01    0.271E+00
DAV:  13    -0.857024930996E+03    0.30849E-01   -0.28245E-02 20312   0.633E-01    0.192E+00
DAV:  14    -0.857025022402E+03   -0.91407E-04   -0.13869E-02 18160   0.402E-01    0.161E+00
DAV:  15    -0.857019214683E+03    0.58077E-02   -0.14600E-02 16640   0.409E-01    0.950E-01
DAV:  16    -0.857016257658E+03    0.29570E-02   -0.18989E-03 22200   0.219E-01    0.467E-01
DAV:  17    -0.857016192456E+03    0.65202E-04   -0.11034E-03 17344   0.106E-01    0.321E-01
DAV:  18    -0.857016038212E+03    0.15424E-03   -0.25073E-04 18168   0.754E-02    0.262E-01
DAV:  19    -0.857015918676E+03    0.11954E-03   -0.23637E-04 17920   0.660E-02    0.152E-01
DAV:  20    -0.857015819148E+03    0.99527E-04   -0.80371E-05 20392   0.399E-02    0.559E-02
DAV:  21    -0.857015829609E+03   -0.10461E-04   -0.35287E-05 14400   0.202E-02    0.662E-02
DAV:  22    -0.857015826991E+03    0.26182E-05   -0.72226E-06  9760   0.153E-02
  14 F= -.93848172E+03 E0= -.93832406E+03  d E =-.166133E+03
 curvature:  -7.40 expect dE=-0.163E+03 dE for cont linesearch -0.922E-02
 trial: gam= 0.07048 g(F)=  0.219E+02 g(S)=  0.000E+00 ort = 0.115E+01 (trialstep = 0.103E+01)
 search vector abs. value=  0.274E+02
 bond charge predicted
       N       E                     dE             d eps       ncg     rms          rms(c)
DAV:   1    -0.857198233857E+03   -0.18240E+00   -0.41529E+03 14448   0.774E+01    0.336E+01
DAV:   2    -0.110188221728E+04   -0.24468E+03   -0.24462E+02 19368   0.515E+01    0.151E+02
DAV:   3    -0.111402014672E+04   -0.12138E+02   -0.16100E+02 20368   0.754E+01    0.194E+02
DAV:   4    -0.113054293551E+04   -0.16523E+02   -0.88029E+01 21360   0.710E+01    0.202E+02
DAV:   5    -0.874870147822E+03    0.25567E+03   -0.52071E+01 21984   0.364E+01    0.446E+01
DAV:   6    -0.876589125652E+03   -0.17190E+01   -0.25506E+01 23240   0.197E+01    0.461E+01
DAV:   7    -0.882222703615E+03   -0.56336E+01   -0.22290E+01 18376   0.221E+01    0.567E+01
DAV:   8    -0.874998173283E+03    0.72245E+01   -0.73366E+00 17528   0.108E+01    0.371E+01
DAV:   9    -0.874578184905E+03    0.41999E+00   -0.26844E+00 19472   0.900E+00    0.338E+01
DAV:  10    -0.875897713344E+03   -0.13195E+01   -0.57899E+00 19368   0.127E+01    0.427E+01
DAV:  11    -0.873342241646E+03    0.25555E+01   -0.27333E+00 21176   0.923E+00    0.319E+01
DAV:  12    -0.873345515318E+03   -0.32737E-02   -0.15579E+00 19144   0.382E+00    0.310E+01
DAV:  13    -0.871743885697E+03    0.16016E+01   -0.11003E+00 21720   0.325E+00    0.240E+01
DAV:  14    -0.870160912706E+03    0.15830E+01   -0.40402E-01 23192   0.492E+00    0.127E+01
DAV:  15    -0.869739018690E+03    0.42189E+00   -0.34571E-01 17776   0.146E+00    0.972E+00
DAV:  16    -0.869728254305E+03    0.10764E-01   -0.10611E-01 19936   0.133E+00    0.852E+00
DAV:  17    -0.869829208798E+03   -0.10095E+00   -0.33660E-01 19392   0.238E+00    0.777E+00
DAV:  18    -0.869980039132E+03   -0.15083E+00   -0.13934E-01 18112   0.705E-01    0.891E+00
DAV:  19    -0.869670584260E+03    0.30945E+00   -0.46459E-02 19136   0.700E-01    0.652E+00
DAV:  20    -0.869470719420E+03    0.19986E+00   -0.21582E-01 22608   0.130E+00    0.425E+00
DAV:  21    -0.869466986546E+03    0.37329E-02   -0.74868E-02 16968   0.594E-01    0.319E+00
DAV:  22    -0.869464505260E+03    0.24813E-02   -0.10307E-02 17728   0.200E-01    0.309E+00
DAV:  23    -0.869457247738E+03    0.72575E-02   -0.27160E-03 22040   0.137E-01    0.255E+00
DAV:  24    -0.869460440655E+03   -0.31929E-02   -0.17543E-02 18680   0.406E-01    0.186E+00
DAV:  25    -0.869450266269E+03    0.10174E-01   -0.79549E-03 15584   0.262E-01    0.151E+00
DAV:  26    -0.869446461782E+03    0.38045E-02   -0.29038E-03 17648   0.141E-01    0.133E+00
DAV:  27    -0.869444911475E+03    0.15503E-02   -0.87130E-04 22240   0.559E-02    0.120E+00
DAV:  28    -0.869442163401E+03    0.27481E-02   -0.50816E-04 22080   0.791E-02    0.927E-01
DAV:  29    -0.869439918422E+03    0.22450E-02   -0.60110E-03 16080   0.168E-01    0.544E-01
DAV:  30    -0.869440294967E+03   -0.37655E-03   -0.11081E-03 18440   0.566E-02    0.521E-01
DAV:  31    -0.869440515643E+03   -0.22068E-03   -0.13095E-04 19080   0.328E-02    0.412E-01
DAV:  32    -0.869440530143E+03   -0.14499E-04   -0.25629E-04 19024   0.601E-02    0.173E-01
DAV:  33    -0.869440776112E+03   -0.24597E-03   -0.17029E-04 15912   0.290E-02    0.162E-01
DAV:  34    -0.869440765003E+03    0.11109E-04   -0.42803E-05 14736   0.158E-02    0.118E-01
DAV:  35    -0.869440743996E+03    0.21006E-04   -0.46036E-05 19072   0.219E-02    0.418E-02
DAV:  36    -0.869440751782E+03   -0.77861E-05   -0.25689E-05 15040   0.112E-02    0.362E-02
DAV:  37    -0.869440749695E+03    0.20876E-05   -0.91306E-06  9048   0.670E-03
  15 F= -.95066443E+03 E0= -.95050932E+03  d E =-.121827E+02
 trial-energy change:  -12.182705  1 .order  -13.490615  -22.726531   -4.254700
 step:   1.2694(harm=  1.2694)  dis= 0.15708  next Energy=  -952.462339 (dE=-0.140E+02)
 bond charge predicted
       N       E                     dE             d eps       ncg     rms          rms(c)
DAV:   1    -0.869825546611E+03   -0.38479E+00   -0.22070E+02 14496   0.172E+01    0.660E+00
DAV:   2    -0.880970059766E+03   -0.11145E+02   -0.82178E+00 19200   0.876E+00    0.399E+01
DAV:   3    -0.881620934427E+03   -0.65087E+00   -0.94349E+00 20192   0.168E+01    0.553E+01
DAV:   4    -0.874929989343E+03    0.66909E+01   -0.96434E+00 19360   0.138E+01    0.309E+01
DAV:   5    -0.870920800400E+03    0.40092E+01   -0.50607E+00 21760   0.923E+00    0.127E+01
DAV:   6    -0.871720832367E+03   -0.80003E+00   -0.25389E+00 20560   0.362E+00    0.182E+01
DAV:   7    -0.871309470102E+03    0.41136E+00   -0.17116E+00 19960   0.656E+00    0.174E+01
DAV:   8    -0.870626607808E+03    0.68286E+00   -0.77036E-01 19232   0.300E+00    0.112E+01
DAV:   9    -0.870665301310E+03   -0.38694E-01   -0.41170E-01 21800   0.282E+00    0.110E+01
DAV:  10    -0.870377417075E+03    0.28788E+00   -0.44574E-01 20080   0.347E+00    0.667E+00
DAV:  11    -0.870301047237E+03    0.76370E-01   -0.97739E-02 21704   0.139E+00    0.388E+00
DAV:  12    -0.870204683342E+03    0.96364E-01   -0.93081E-02 20096   0.713E-01    0.894E-01
DAV:  13    -0.870209838508E+03   -0.51552E-02   -0.18041E-02 18520   0.373E-01    0.752E-01
DAV:  14    -0.870211282433E+03   -0.14439E-02   -0.55160E-03 17432   0.226E-01    0.102E+00
DAV:  15    -0.870213244331E+03   -0.19619E-02   -0.71788E-03 17808   0.265E-01    0.118E+00
DAV:  16    -0.870210052791E+03    0.31915E-02   -0.29010E-03 16560   0.233E-01    0.778E-01
DAV:  17    -0.870208061186E+03    0.19916E-02   -0.74214E-04 23160   0.182E-01    0.299E-01
DAV:  18    -0.870208216585E+03   -0.15540E-03   -0.42359E-04 16944   0.638E-02    0.132E-01
DAV:  19    -0.870208249984E+03   -0.33398E-04   -0.60358E-05 16032   0.357E-02    0.867E-02
DAV:  20    -0.870208284013E+03   -0.34029E-04   -0.62839E-05 14896   0.194E-02    0.431E-02
DAV:  21    -0.870208295702E+03   -0.11689E-04   -0.64269E-06  8712   0.112E-02    0.271E-02
DAV:  22    -0.870208310768E+03   -0.15066E-04   -0.82979E-06  8936   0.769E-03    0.179E-02
DAV:  23    -0.870208323893E+03   -0.13125E-04   -0.98144E-07  8112   0.576E-03    0.287E-02
DAV:  24    -0.870208328340E+03   -0.44471E-05   -0.25498E-06  7984   0.537E-03
  16 F= -.95137565E+03 E0= -.95122926E+03  d E =-.128939E+02
 curvature:  -0.79 expect dE=-0.243E+01 dE for cont linesearch -0.101E+00
 ZBRENT: increasing intervall
 opt :   1.7447  next Energy=  -951.194378 (dE=-0.127E+02)
 bond charge predicted
       N       E                     dE             d eps       ncg     rms          rms(c)
DAV:   1    -0.868549668665E+03    0.16587E+01   -0.87685E+02 14480   0.343E+01    0.138E+01
DAV:   2    -0.985187827347E+03   -0.11664E+03   -0.37569E+01 20232   0.298E+01    0.117E+02
DAV:   3    -0.910508096748E+03    0.74680E+02   -0.43332E+01 21976   0.384E+01    0.888E+01
DAV:   4    -0.898248296748E+03    0.12260E+02   -0.21046E+01 21784   0.298E+01    0.783E+01
DAV:   5    -0.871699679599E+03    0.26549E+02   -0.31461E+01 23256   0.199E+01    0.204E+01
DAV:   6    -0.872690460802E+03   -0.99078E+00   -0.63680E+00 22912   0.106E+01    0.243E+01
DAV:   7    -0.871189879426E+03    0.15006E+01   -0.40701E+00 19808   0.939E+00    0.155E+01
DAV:   8    -0.871210519415E+03   -0.20640E-01   -0.10900E+00 18632   0.487E+00    0.143E+01
DAV:   9    -0.871226077258E+03   -0.15558E-01   -0.14809E+00 19376   0.636E+00    0.149E+01
DAV:  10    -0.870620343152E+03    0.60573E+00   -0.90368E-01 19616   0.308E+00    0.937E+00
DAV:  11    -0.870449490577E+03    0.17085E+00   -0.13112E+00 19128   0.141E+00    0.572E+00
DAV:  12    -0.870370889244E+03    0.78601E-01   -0.17877E-01 22944   0.160E+00    0.388E+00
DAV:  13    -0.870378341684E+03   -0.74524E-02   -0.10152E-01 18008   0.715E-01    0.474E+00
DAV:  14    -0.870381771018E+03   -0.34293E-02   -0.53173E-02 22088   0.681E-01    0.453E+00
DAV:  15    -0.870343988606E+03    0.37782E-01   -0.86590E-02 19888   0.104E+00    0.166E+00
DAV:  16    -0.870335990770E+03    0.79978E-02   -0.83246E-03 18920   0.263E-01    0.138E+00
DAV:  17    -0.870336275381E+03   -0.28461E-03   -0.27075E-03 18248   0.193E-01    0.106E+00
DAV:  18    -0.870336377987E+03   -0.10261E-03   -0.32482E-03 22544   0.298E-01    0.111E+00
DAV:  19    -0.870331619765E+03    0.47582E-02   -0.23176E-03 21920   0.170E-01    0.341E-01
DAV:  20    -0.870333053914E+03   -0.14341E-02   -0.98143E-04 19600   0.105E-01    0.517E-01
DAV:  21    -0.870332631300E+03    0.42261E-03   -0.17121E-04 19312   0.371E-02    0.439E-01
DAV:  22    -0.870332313644E+03    0.31766E-03   -0.17226E-04 22288   0.396E-02    0.223E-01
DAV:  23    -0.870332471675E+03   -0.15803E-03   -0.98922E-05 22656   0.209E-02    0.122E-01
DAV:  24    -0.870332534099E+03   -0.62425E-04   -0.19603E-05 13096   0.132E-02    0.958E-02
DAV:  25    -0.870332575192E+03   -0.41093E-04   -0.11572E-05  8848   0.905E-03    0.442E-02
DAV:  26    -0.870332614815E+03   -0.39622E-04   -0.76224E-06  8664   0.705E-03    0.536E-03
DAV:  27    -0.870332627085E+03   -0.12270E-04   -0.45845E-06  8192   0.452E-03    0.102E-02
DAV:  28    -0.870332631308E+03   -0.42226E-05   -0.13913E-06  7832   0.246E-03
  17 F= -.95138701E+03 E0= -.95123166E+03  d E =-.129053E+02
 curvature:   1.42 expect dE= 0.724E+01 dE for cont linesearch  0.138E+00
 ZBRENT: bracketing found
 ZBRENT: interpolating
 opt :   1.5231  next Energy=  -951.568029 (dE=-0.131E+02)
 bond charge predicted
       N       E                     dE             d eps       ncg     rms          rms(c)
DAV:   1    -0.870174704595E+03    0.15792E+00   -0.19231E+02 14488   0.159E+01    0.598E+00
DAV:   2    -0.886436632334E+03   -0.16262E+02   -0.14163E+01 19976   0.104E+01    0.486E+01
DAV:   3    -0.876369264623E+03    0.10067E+02   -0.84072E+00 22352   0.165E+01    0.331E+01
DAV:   4    -0.873904630719E+03    0.24646E+01   -0.80921E+00 22032   0.109E+01    0.277E+01
DAV:   5    -0.871293246886E+03    0.26114E+01   -0.42984E+00 23320   0.832E+00    0.121E+01
DAV:   6    -0.871617967359E+03   -0.32472E+00   -0.88584E-01 22552   0.585E+00    0.178E+01
DAV:   7    -0.871165766340E+03    0.45220E+00   -0.12077E+00 20760   0.526E+00    0.123E+01
DAV:   8    -0.870941884693E+03    0.22388E+00   -0.14502E+00 21656   0.455E+00    0.100E+01
DAV:   9    -0.870630652092E+03    0.31123E+00   -0.18713E-01 20704   0.266E+00    0.505E+00
DAV:  10    -0.870546004531E+03    0.84648E-01   -0.19489E-01 20264   0.125E+00    0.420E+00
DAV:  11    -0.870513808462E+03    0.32196E-01   -0.49328E-02 18952   0.634E-01    0.298E+00
DAV:  12    -0.870487803712E+03    0.26005E-01   -0.31286E-02 22528   0.546E-01    0.136E+00
DAV:  13    -0.870481942159E+03    0.58616E-02   -0.18089E-02 18872   0.367E-01    0.771E-01
DAV:  14    -0.870482994145E+03   -0.10520E-02   -0.68205E-03 22248   0.345E-01    0.103E+00
DAV:  15    -0.870483322473E+03   -0.32833E-03   -0.33028E-03 17616   0.186E-01    0.838E-01
DAV:  16    -0.870480225655E+03    0.30968E-02   -0.11520E-03 21240   0.197E-01    0.348E-01
DAV:  17    -0.870480439764E+03   -0.21411E-03   -0.60242E-04 16504   0.625E-02    0.411E-01
DAV:  18    -0.870480002399E+03    0.43737E-03   -0.35488E-04 17488   0.783E-02    0.166E-01
DAV:  19    -0.870480044432E+03   -0.42033E-04   -0.14493E-04 15520   0.487E-02    0.944E-02
DAV:  20    -0.870480048527E+03   -0.40955E-05   -0.57557E-05 15952   0.223E-02    0.354E-02
DAV:  21    -0.870480056213E+03   -0.76860E-05   -0.11994E-05  9976   0.135E-02    0.345E-02
DAV:  22    -0.870480064526E+03   -0.83128E-05   -0.12962E-05 10224   0.118E-02    0.192E-02
DAV:  23    -0.870480067331E+03   -0.28049E-05   -0.36165E-06  7896   0.379E-03
  18 F= -.95158709E+03 E0= -.95144041E+03  d E =-.131054E+02
 curvature:  -1.86 expect dE=-0.727E+01 dE for cont linesearch -0.124E-02
 trial: gam= 0.21187 g(F)=  0.392E+01 g(S)=  0.000E+00 ort =-0.135E+00 (trialstep = 0.113E+01)
 search vector abs. value=  0.509E+01
 bond charge predicted
       N       E                     dE             d eps       ncg     rms          rms(c)
DAV:   1    -0.872652344503E+03   -0.21723E+01   -0.10987E+03 14456   0.390E+01    0.113E+01
DAV:   2    -0.937307865620E+03   -0.64656E+02   -0.43920E+01 18792   0.257E+01    0.101E+02
DAV:   3    -0.898482324091E+03    0.38826E+02   -0.41316E+01 24104   0.321E+01    0.723E+01
DAV:   4    -0.884418935799E+03    0.14063E+02   -0.16055E+01 23312   0.181E+01    0.469E+01
DAV:   5    -0.878568788038E+03    0.58501E+01   -0.53658E+00 23208   0.133E+01    0.317E+01
DAV:   6    -0.879261272788E+03   -0.69248E+00   -0.46177E+00 21976   0.126E+01    0.325E+01
DAV:   7    -0.876079672447E+03    0.31816E+01   -0.15359E+00 17928   0.602E+00    0.201E+01
DAV:   8    -0.876282198938E+03   -0.20253E+00   -0.11468E+00 16560   0.266E+00    0.214E+01
DAV:   9    -0.876368412609E+03   -0.86214E-01   -0.66434E-01 17056   0.373E+00    0.211E+01
DAV:  10    -0.875873923788E+03    0.49449E+00   -0.41599E-01 18152   0.357E+00    0.178E+01
DAV:  11    -0.874996013807E+03    0.87791E+00   -0.75535E-01 22904   0.359E+00    0.982E+00
DAV:  12    -0.874535191659E+03    0.46082E+00   -0.21420E-01 22912   0.166E+00    0.503E+00
DAV:  13    -0.874548686679E+03   -0.13495E-01   -0.94308E-02 20568   0.695E-01    0.455E+00
DAV:  14    -0.874550464189E+03   -0.17775E-02   -0.74280E-02 20096   0.881E-01    0.380E+00
DAV:  15    -0.874497059576E+03    0.53405E-01   -0.17007E-02 18496   0.432E-01    0.266E+00
DAV:  16    -0.874497016492E+03    0.43085E-04   -0.17901E-02 17544   0.498E-01    0.220E+00
DAV:  17    -0.874485170206E+03    0.11846E-01   -0.14746E-02 20320   0.374E-01    0.188E+00
DAV:  18    -0.874479438677E+03    0.57315E-02   -0.91662E-03 24464   0.248E-01    0.817E-01
DAV:  19    -0.874479992506E+03   -0.55383E-03   -0.23793E-03 19592   0.146E-01    0.494E-01
DAV:  20    -0.874479835821E+03    0.15669E-03   -0.80275E-04 16584   0.669E-02    0.324E-01
DAV:  21    -0.874480060590E+03   -0.22477E-03   -0.33423E-04 21760   0.581E-02    0.325E-01
DAV:  22    -0.874479966952E+03    0.93638E-04   -0.31540E-04 20504   0.682E-02    0.252E-01
DAV:  23    -0.874479935837E+03    0.31115E-04   -0.13515E-04 17976   0.469E-02    0.832E-02
DAV:  24    -0.874479959583E+03   -0.23746E-04   -0.49257E-05 17232   0.176E-02    0.622E-02
DAV:  25    -0.874479955965E+03    0.36177E-05   -0.13911E-05 11328   0.928E-03
  19 F= -.95532537E+03 E0= -.95517316E+03  d E =-.373828E+01
 trial-energy change:   -3.738282  1 .order   -3.730841   -4.393832   -3.067849
 step:   3.4977(harm=  3.7445)  dis= 0.13120  next Energy=  -958.607789 (dE=-0.702E+01)
 bond charge predicted
       N       E                     dE             d eps       ncg     rms          rms(c)
DAV:   1    -0.866674172617E+03    0.78058E+01   -0.48566E+03 14520   0.843E+01    0.242E+01
DAV:   2    -0.107568292293E+04   -0.20901E+03   -0.13459E+02 16584   0.529E+01    0.163E+02
DAV:   3    -0.995302533861E+03    0.80380E+02   -0.93446E+01 19600   0.578E+01    0.134E+02
DAV:   4    -0.889521978236E+03    0.10578E+03   -0.30982E+01 17968   0.384E+01    0.517E+01
DAV:   5    -0.899188922507E+03   -0.96669E+01   -0.27739E+01 19112   0.280E+01    0.550E+01
DAV:   6    -0.904506519173E+03   -0.53176E+01   -0.19776E+01 18808   0.308E+01    0.702E+01
DAV:   7    -0.887060389292E+03    0.17446E+02   -0.16616E+01 18488   0.166E+01    0.421E+01
DAV:   8    -0.883602962358E+03    0.34574E+01   -0.97182E+00 16528   0.129E+01    0.376E+01
DAV:   9    -0.884585382074E+03   -0.98242E+00   -0.33568E+00 17072   0.604E+00    0.374E+01
DAV:  10    -0.883325358009E+03    0.12600E+01   -0.21332E+00 23976   0.519E+00    0.344E+01
DAV:  11    -0.884631716681E+03   -0.13064E+01   -0.29008E+00 19200   0.374E+00    0.363E+01
DAV:  12    -0.881090450471E+03    0.35413E+01   -0.37656E+00 24888   0.619E+00    0.211E+01
DAV:  13    -0.881034197888E+03    0.56253E-01   -0.14355E+00 22320   0.361E+00    0.178E+01
DAV:  14    -0.879802633777E+03    0.12316E+01   -0.85142E-01 18576   0.275E+00    0.106E+01
DAV:  15    -0.879610300688E+03    0.19233E+00   -0.20100E-01 21296   0.122E+00    0.837E+00
DAV:  16    -0.879496515633E+03    0.11379E+00   -0.21255E-01 27088   0.154E+00    0.780E+00
DAV:  17    -0.879337591954E+03    0.15892E+00   -0.17641E-01 20040   0.128E+00    0.557E+00
DAV:  18    -0.879242623664E+03    0.94968E-01   -0.35684E-02 22808   0.101E+00    0.297E+00
DAV:  19    -0.879225436315E+03    0.17187E-01   -0.19976E-02 15288   0.475E-01    0.224E+00
DAV:  20    -0.879209182206E+03    0.16254E-01   -0.90253E-03 23312   0.455E-01    0.118E+00
DAV:  21    -0.879207169650E+03    0.20126E-02   -0.63837E-03 17360   0.266E-01    0.791E-01
DAV:  22    -0.879207603087E+03   -0.43344E-03   -0.20805E-03 22192   0.139E-01    0.667E-01
DAV:  23    -0.879206947786E+03    0.65530E-03   -0.63319E-04 16480   0.705E-02    0.452E-01
DAV:  24    -0.879206868416E+03    0.79371E-04   -0.37947E-04 20216   0.507E-02    0.313E-01
DAV:  25    -0.879206630707E+03    0.23771E-03   -0.16029E-04 19296   0.717E-02    0.106E-01
DAV:  26    -0.879206663476E+03   -0.32770E-04   -0.12487E-04 22048   0.273E-02    0.862E-02
DAV:  27    -0.879206666435E+03   -0.29590E-05   -0.22780E-05 13328   0.119E-02
  20 F= -.95951001E+03 E0= -.95934234E+03  d E =-.792292E+01
 curvature:  -2.43 expect dE=-0.189E+01 dE for cont linesearch -0.444E+00
 ZBRENT: increasing intervall
 opt :   8.2331  next Energy=  -955.792354 (dE=-0.421E+01)
