<?xml version="1.0" encoding="ISO-8859-1"?>
<modeling>
 <generator>
  <i name="program" type="string">vasp </i>
  <i name="version" type="string">6.3.1  </i>
  <i name="subversion" type="string">04May22 (build Jun  1 2022 15:53:57) complex                          parallel </i>
  <i name="platform" type="string">LinuxNV </i>
  <i name="date" type="string">2022 09 12 </i>
  <i name="time" type="string">16:06:04 </i>
 </generator>
 <incar>
  <i type="string" name="SYSTEM">NiAl</i>
  <i type="int" name="ISTART">     0</i>
  <i type="string" name="PREC">Accurate</i>
  <i type="int" name="NELMIN">     6</i>
  <i type="int" name="IBRION">     2</i>
  <i name="EDIFF">      0.00000010</i>
  <i type="int" name="NSW">    40</i>
  <i type="int" name="ISIF">     2</i>
  <i name="ENCUT">    360.00000000</i>
  <i name="POTIM">      0.20000000</i>
  <i type="string" name="LREAL">Auto</i>
  <i type="logical" name="LPLANE"> T  </i>
  <i type="int" name="ISMEAR">     0</i>
  <i name="SIGMA">      0.05000000</i>
  <i type="logical" name="LWAVE"> F  </i>
  <i type="logical" name="LCHARG"> F  </i>
  <i type="int" name="IVDW">    12</i>
 </incar>
 <primitive_cell>
  <structure name="primitive_cell" >
   <crystal>
    <varray name="basis" >
     <v>       2.10830981      -2.10830981       0.00000000 </v>
     <v>       2.10830981       2.10830981       0.00000000 </v>
     <v>       0.00000000       0.00000000      25.64985847 </v>
    </varray>
    <i name="volume">    228.02571566 </i>
    <varray name="rec_basis" >
     <v>       0.23715680      -0.23715680       0.00000000 </v>
     <v>       0.23715680       0.23715680      -0.00000000 </v>
     <v>      -0.00000000       0.00000000       0.03898657 </v>
    </varray>
   </crystal>
   <varray name="positions" >
    <v>       0.00000000       0.00000000       0.00000000 </v>
    <v>       0.00000000       0.00000000       0.16439154 </v>
    <v>       0.00000000       0.00000000       0.32878307 </v>
    <v>       0.50000000       0.50000000       0.08219577 </v>
    <v>       0.50000000       0.50000000       0.24658730 </v>
    <v>       0.50000000       0.50000000       0.41097882 </v>
    <v>       0.50000000       0.50000000       0.00000000 </v>
    <v>       0.50000000       0.50000000       0.16439154 </v>
    <v>       0.50000000       0.50000000       0.32878307 </v>
    <v>       0.00000000       0.00000000       0.08219577 </v>
    <v>       0.00000000       0.00000000       0.24658730 </v>
    <v>       0.00000000       0.00000000       0.41097882 </v>
   </varray>
  </structure>
  <varray name="primitive_index" >
   <v type="int" >        1 </v>
   <v type="int" >        2 </v>
   <v type="int" >        3 </v>
   <v type="int" >       28 </v>
   <v type="int" >       29 </v>
   <v type="int" >       30 </v>
   <v type="int" >      109 </v>
   <v type="int" >      110 </v>
   <v type="int" >      111 </v>
   <v type="int" >      163 </v>
   <v type="int" >      164 </v>
   <v type="int" >      165 </v>
  </varray>
 </primitive_cell>
 <kpoints>
  <generation param="Gamma">
   <v type="int" name="divisions">       2        2        1 </v>
   <v name="usershift">      0.00000000       0.00000000       0.00000000 </v>
   <v name="genvec1">      0.50000000       0.00000000       0.00000000 </v>
   <v name="genvec2">      0.00000000       0.50000000       0.00000000 </v>
   <v name="genvec3">      0.00000000       0.00000000       1.00000000 </v>
   <v name="shift">      0.00000000       0.00000000       0.00000000 </v>
  </generation>
  <varray name="kpointlist" >
   <v>       0.00000000       0.00000000       0.00000000 </v>
   <v>       0.50000000       0.00000000       0.00000000 </v>
   <v>       0.50000000       0.50000000       0.00000000 </v>
  </varray>
  <varray name="weights" >
   <v>       0.25000000 </v>
   <v>       0.50000000 </v>
   <v>       0.25000000 </v>
  </varray>
 </kpoints>
 <parameters>
  <separator name="general" >
   <i type="string" name="SYSTEM">NiAl</i>
   <i type="logical" name="LCOMPAT"> F  </i>
  </separator>
  <separator name="electronic" >
   <i type="string" name="PREC">accura</i>
   <i name="ENMAX">    360.00000000</i>
   <i name="ENAUG">   1139.60900000</i>
   <i name="EDIFF">      0.00000010</i>
   <i type="int" name="IALGO">    38</i>
   <i type="int" name="IWAVPR">    11</i>
   <i type="int" name="NBANDS">  1036</i>
   <i type="int" name="NBANDSLOW">    -1</i>
   <i type="int" name="NBANDSHIGH">    -1</i>
   <i name="NELECT">   1728.00000000</i>
   <i type="int" name="TURBO">     0</i>
   <i type="int" name="IRESTART">     0</i>
   <i type="int" name="NREBOOT">     0</i>
   <i type="int" name="NMIN">     0</i>
   <i name="EREF">      0.00000000</i>
   <separator name="electronic smearing" >
    <i type="int" name="ISMEAR">     0</i>
    <i name="SIGMA">      0.05000000</i>
    <i name="KSPACING">      0.50000000</i>
    <i type="logical" name="KGAMMA"> T  </i>
    <i type="logical" name="KBLOWUP"> T  </i>
   </separator>
   <separator name="electronic projectors" >
    <i type="logical" name="LREAL"> T  </i>
    <v name="ROPT">     -0.00025000     -0.00025000</v>
    <i type="int" name="LMAXPAW">  -100</i>
    <i type="int" name="LMAXMIX">     2</i>
    <i type="logical" name="NLSPLINE"> F  </i>
   </separator>
   <separator name="electronic startup" >
    <i type="int" name="ISTART">     0</i>
    <i type="int" name="ICHARG">     2</i>
    <i type="int" name="INIWAV">     1</i>
   </separator>
   <separator name="electronic spin" >
    <i type="int" name="ISPIN">     1</i>
    <i type="logical" name="LNONCOLLINEAR"> F  </i>
    <v name="MAGMOM">      1.00000000      1.00000000      1.00000000      1.00000000      1.00000000      1.00000000      1.00000000      1.00000000      1.00000000      1.00000000      1.00000000      1.00000000      1.00000000      1.00000000      1.00000000      1.00000000      1.00000000      1.00000000      1.00000000      1.00000000
      1.00000000      1.00000000      1.00000000      1.00000000      1.00000000      1.00000000      1.00000000      1.00000000      1.00000000      1.00000000      1.00000000      1.00000000      1.00000000      1.00000000      1.00000000      1.00000000      1.00000000      1.00000000      1.00000000      1.00000000
      1.00000000      1.00000000      1.00000000      1.00000000      1.00000000      1.00000000      1.00000000      1.00000000      1.00000000      1.00000000      1.00000000      1.00000000      1.00000000      1.00000000      1.00000000      1.00000000      1.00000000      1.00000000      1.00000000      1.00000000
      1.00000000      1.00000000      1.00000000      1.00000000      1.00000000      1.00000000      1.00000000      1.00000000      1.00000000      1.00000000      1.00000000      1.00000000      1.00000000      1.00000000      1.00000000      1.00000000      1.00000000      1.00000000      1.00000000      1.00000000
      1.00000000      1.00000000      1.00000000      1.00000000      1.00000000      1.00000000      1.00000000      1.00000000      1.00000000      1.00000000      1.00000000      1.00000000      1.00000000      1.00000000      1.00000000      1.00000000      1.00000000      1.00000000      1.00000000      1.00000000
      1.00000000      1.00000000      1.00000000      1.00000000      1.00000000      1.00000000      1.00000000      1.00000000      1.00000000      1.00000000      1.00000000      1.00000000      1.00000000      1.00000000      1.00000000      1.00000000      1.00000000      1.00000000      1.00000000      1.00000000
      1.00000000      1.00000000      1.00000000      1.00000000      1.00000000      1.00000000      1.00000000      1.00000000      1.00000000      1.00000000      1.00000000      1.00000000      1.00000000      1.00000000      1.00000000      1.00000000      1.00000000      1.00000000      1.00000000      1.00000000
      1.00000000      1.00000000      1.00000000      1.00000000      1.00000000      1.00000000      1.00000000      1.00000000      1.00000000      1.00000000      1.00000000      1.00000000      1.00000000      1.00000000      1.00000000      1.00000000      1.00000000      1.00000000      1.00000000      1.00000000
      1.00000000      1.00000000      1.00000000      1.00000000      1.00000000      1.00000000      1.00000000      1.00000000      1.00000000      1.00000000      1.00000000      1.00000000      1.00000000      1.00000000      1.00000000      1.00000000      1.00000000      1.00000000      1.00000000      1.00000000
      1.00000000      1.00000000      1.00000000      1.00000000      1.00000000      1.00000000      1.00000000      1.00000000      1.00000000      1.00000000      1.00000000      1.00000000      1.00000000      1.00000000      1.00000000      1.00000000      1.00000000      1.00000000      1.00000000      1.00000000
      1.00000000      1.00000000      1.00000000      1.00000000      1.00000000      1.00000000      1.00000000      1.00000000      1.00000000      1.00000000      1.00000000      1.00000000      1.00000000      1.00000000      1.00000000      1.00000000</v>
    <i name="NUPDOWN">     -1.00000000</i>
    <i type="logical" name="LSORBIT"> F  </i>
    <v name="SAXIS">      0.00000000      0.00000000      1.00000000</v>
    <i type="logical" name="LSPIRAL"> F  </i>
    <v name="QSPIRAL">      0.00000000      0.00000000      0.00000000</v>
    <i type="logical" name="LZEROZ"> F  </i>
   </separator>
   <separator name="electronic exchange-correlation" >
    <i type="logical" name="LASPH"> F  </i>
    <i type="logical" name="LMETAGGA"> F  </i>
   </separator>
   <separator name="electronic convergence" >
    <i type="int" name="NELM">    60</i>
    <i type="int" name="NELMDL">    -5</i>
    <i type="int" name="NELMIN">     6</i>
    <i name="ENINI">    360.00000000</i>
    <separator name="electronic convergence detail" >
     <i type="logical" name="LDIAG"> T  </i>
     <i type="logical" name="LSUBROT"> F  </i>
     <i name="WEIMIN">      0.00100000</i>
     <i name="EBREAK">      0.00000000</i>
     <i name="DEPER">      0.30000000</i>
     <i type="int" name="NRMM">     4</i>
     <i name="TIME">      0.40000000</i>
    </separator>
   </separator>
   <separator name="electronic mixer" >
    <i name="AMIX">      0.40000000</i>
    <i name="BMIX">      1.00000000</i>
    <i name="AMIN">      0.10000000</i>
    <i name="AMIX_MAG">      1.60000000</i>
    <i name="BMIX_MAG">      1.00000000</i>
    <separator name="electronic mixer details" >
     <i type="int" name="IMIX">     4</i>
     <i type="logical" name="MIXFIRST"> F  </i>
     <i type="int" name="MAXMIX">   -45</i>
     <i name="WC">    100.00000000</i>
     <i type="int" name="INIMIX">     1</i>
     <i type="int" name="MIXPRE">     1</i>
     <i type="int" name="MREMOVE">     5</i>
    </separator>
   </separator>
   <separator name="electronic dipolcorrection" >
    <i type="logical" name="LDIPOL"> F  </i>
    <i type="logical" name="LMONO"> F  </i>
    <i type="int" name="IDIPOL">     0</i>
    <i name="EPSILON">      1.00000000</i>
    <v name="DIPOL">   -100.00000000   -100.00000000   -100.00000000</v>
    <i name="EFIELD">      0.00000000</i>
   </separator>
  </separator>
  <separator name="grids" >
   <i type="int" name="NGX">    80</i>
   <i type="int" name="NGY">    80</i>
   <i type="int" name="NGZ">   160</i>
   <i type="int" name="NGXF">   160</i>
   <i type="int" name="NGYF">   160</i>
   <i type="int" name="NGZF">   320</i>
   <i type="logical" name="ADDGRID"> F  </i>
  </separator>
  <separator name="ionic" >
   <i type="int" name="NSW">    40</i>
   <i type="int" name="IBRION">     2</i>
   <i type="int" name="MDALGO">     0</i>
   <i type="int" name="ISIF">     2</i>
   <i name="PSTRESS">      0.00000000</i>
   <i name="EDIFFG">      0.00000100</i>
   <i type="int" name="NFREE">     1</i>
   <i name="POTIM">      0.20000000</i>
   <i name="SMASS">     -3.00000000</i>
   <i name="SCALEE">      1.00000000</i>
  </separator>
  <separator name="ionic md" >
   <i name="TEBEG">      0.00010000</i>
   <i name="TEEND">      0.00010000</i>
   <i type="int" name="NBLOCK">     1</i>
   <i type="int" name="KBLOCK">    40</i>
   <i type="int" name="NPACO">   256</i>
   <i name="APACO">     10.00000000</i>
  </separator>
  <separator name="symmetry" >
   <i type="int" name="ISYM">     2</i>
   <i name="SYMPREC">      0.00001000</i>
  </separator>
  <separator name="dos" >
   <i type="int" name="LORBIT">     0</i>
   <v name="RWIGS">     -1.00000000     -1.00000000</v>
   <i type="int" name="NEDOS">   301</i>
   <i name="EMIN">     10.00000000</i>
   <i name="EMAX">    -10.00000000</i>
   <i name="EFERMI">      0.00000000</i>
  </separator>
  <separator name="writing" >
   <i type="int" name="NWRITE">     2</i>
   <i type="logical" name="LWAVE"> F  </i>
   <i type="logical" name="LDOWNSAMPLE"> F  </i>
   <i type="logical" name="LCHARG"> F  </i>
   <i type="logical" name="LPARD"> F  </i>
   <i type="logical" name="LVTOT"> F  </i>
   <i type="logical" name="LVHAR"> F  </i>
   <i type="logical" name="LELF"> F  </i>
   <i type="logical" name="LOPTICS"> F  </i>
   <v name="STM">      0.00000000      0.00000000      0.00000000      0.00000000      0.00000000      0.00000000      0.00000000</v>
  </separator>
  <separator name="performance" >
   <i type="int" name="NPAR">     1</i>
   <i type="int" name="NSIM">     4</i>
   <i type="int" name="NBLK">    -1</i>
   <i type="logical" name="LPLANE"> T  </i>
   <i type="logical" name="LSCALAPACK"> T  </i>
   <i type="logical" name="LSCAAWARE"> F  </i>
   <i type="logical" name="LSCALU"> F  </i>
   <i type="logical" name="LASYNC"> F  </i>
   <i type="logical" name="LORBITALREAL"> F  </i>
  </separator>
  <separator name="miscellaneous" >
   <i type="int" name="IDIOT">     3</i>
   <i type="int" name="PHON_NSTRUCT">    -1</i>
   <i type="logical" name="LMUSIC"> F  </i>
   <v name="POMASS">     58.69000000     16.00000000</v>
   <v name="DARWINR">      0.00000000      0.00000000</v>
   <v name="DARWINV">      1.00000000      1.00000000</v>
   <i type="logical" name="LCORR"> T  </i>
  </separator>
  <i type="logical" name="GGA_COMPAT"> T  </i>
  <i type="logical" name="LBERRY"> F  </i>
  <i type="int" name="ICORELEVEL">     0</i>
  <i type="logical" name="LDAU"> F  </i>
  <i type="int" name="I_CONSTRAINED_M">     0</i>
  <separator name="electronic exchange-correlation" >
   <i type="string" name="GGA">--</i>
   <i type="int" name="VOSKOWN">     0</i>
   <i type="logical" name="LHFCALC"> F  </i>
   <i type="string" name="PRECFOCK"></i>
   <i type="logical" name="LSYMGRAD"> F  </i>
   <i type="logical" name="LHFONE"> F  </i>
   <i type="logical" name="LRHFCALC"> F  </i>
   <i type="logical" name="LTHOMAS"> F  </i>
   <i type="logical" name="LMODELHF"> F  </i>
   <i type="logical" name="LFOCKACE"> F  </i>
   <i name="ENCUT4O">     -1.00000000</i>
   <i type="int" name="EXXOEP">     0</i>
   <i type="int" name="FOURORBIT">     0</i>
   <i name="AEXX">      0.00000000</i>
   <i name="HFALPHA">      0.00000000</i>
   <i name="MCALPHA">      0.00000000</i>
   <i name="ALDAX">      1.00000000</i>
   <i name="AGGAX">      1.00000000</i>
   <i name="ALDAC">      1.00000000</i>
   <i name="AGGAC">      1.00000000</i>
   <i type="int" name="NKREDX">     1</i>
   <i type="int" name="NKREDY">     1</i>
   <i type="int" name="NKREDZ">     1</i>
   <i type="logical" name="SHIFTRED"> F  </i>
   <i type="logical" name="ODDONLY"> F  </i>
   <i type="logical" name="EVENONLY"> F  </i>
   <i type="int" name="LMAXFOCK">     0</i>
   <i type="int" name="NMAXFOCKAE">     0</i>
   <i type="logical" name="LFOCKAEDFT"> F  </i>
   <i name="HFSCREEN">      0.00000000</i>
   <i name="HFSCREENC">      0.00000000</i>
   <i type="int" name="NBANDSGWLOW">     0</i>
  </separator>
  <separator name="vdW DFT" >
   <i type="logical" name="LUSE_VDW"> F  </i>
   <i name="Zab_VDW">     -0.84910000</i>
   <i name="PARAM1">      0.12340000</i>
   <i name="PARAM2">      1.00000000</i>
   <i name="PARAM3">      0.00000000</i>
  </separator>
  <separator name="model GW" >
   <i type="int" name="MODEL_GW">     0</i>
   <i name="MODEL_EPS0">     11.40128510</i>
   <i name="MODEL_ALPHA">      1.00000000</i>
  </separator>
  <separator name="linear response parameters" >
   <i type="logical" name="LEPSILON"> F  </i>
   <i type="logical" name="LRPA"> F  </i>
   <i type="logical" name="LNABLA"> F  </i>
   <i type="logical" name="LVEL"> F  </i>
   <i name="CSHIFT">      0.10000000</i>
   <i name="OMEGAMAX">     -1.00000000</i>
   <i name="DEG_THRESHOLD">      0.00200000</i>
   <i name="RTIME">     -0.10000000</i>
   <i name="WPLASMAI">      0.00000000</i>
   <v name="DFIELD">      0.00000000      0.00000000      0.00000000</v>
   <v name="WPLASMA">      0.00000000      0.00000000      0.00000000      0.00000000      0.00000000      0.00000000      0.00000000      0.00000000      0.00000000</v>
  </separator>
  <separator name="orbital magnetization" >
   <i type="logical" name="NUCIND"> F  </i>
   <v name="MAGPOS">      0.00000000      0.00000000      0.00000000</v>
   <i type="logical" name="LNICSALL"> T  </i>
   <i type="logical" name="ORBITALMAG"> F  </i>
   <i type="logical" name="LMAGBLOCH"> F  </i>
   <i type="logical" name="LCHIMAG"> F  </i>
   <i type="logical" name="LGAUGE"> T  </i>
   <i type="int" name="MAGATOM">     0</i>
   <v name="MAGDIPOL">      0.00000000      0.00000000      0.00000000</v>
   <v name="AVECCONST">      0.00000000      0.00000000      0.00000000</v>
  </separator>
  <separator name="response functions" >
   <i type="logical" name="LFINITE_TEMPERATURE"> F  </i>
   <i type="logical" name="LADDER"> F  </i>
   <i type="logical" name="LRPAFORCE"> F  </i>
   <i type="logical" name="LFXC"> F  </i>
   <i type="logical" name="LHARTREE"> T  </i>
   <i type="int" name="IBSE">     0</i>
   <v type="int" name="KPOINT">    -1     0     0     0</v>
   <i type="logical" name="LTCTC"> F  </i>
   <i type="logical" name="LTCTE"> F  </i>
   <i type="logical" name="LTETE"> F  </i>
   <i type="logical" name="LTRIPLET"> F  </i>
   <i type="logical" name="LFXCEPS"> F  </i>
   <i type="logical" name="LFXHEG"> F  </i>
   <i type="int" name="NATURALO">     2</i>
   <i type="logical" name="LHOLEGF"> F  </i>
   <i type="logical" name="L2ORDER"> F  </i>
   <i type="logical" name="LDMP1"> F  </i>
   <i type="logical" name="LMP2LT"> F  </i>
   <i type="logical" name="LSMP2LT"> F  </i>
   <i type="logical" name="LGWLF"> F  </i>
   <i name="ENCUTGW">     -2.00000000</i>
   <i name="ENCUTGWSOFT">     -2.00000000</i>
   <i name="ENCUTLF">     -1.00000000</i>
   <i type="logical" name="LESF_SPLINES"> F  </i>
   <i type="int" name="LMAXMP2">    -1</i>
   <i name="SCISSOR">      0.00000000</i>
   <i type="int" name="NOMEGA">     0</i>
   <i type="int" name="NOMEGAR">     0</i>
   <i type="int" name="NBANDSGW">    -1</i>
   <i type="int" name="NBANDSO">    -1</i>
   <i type="int" name="NBANDSV">    -1</i>
   <i type="int" name="NELMGW">     1</i>
   <i type="int" name="NELMHF">     1</i>
   <i type="int" name="DIM">     3</i>
   <i type="int" name="IESPILON">     4</i>
   <i type="int" name="ANTIRES">     0</i>
   <i name="OMEGAMAX">    -30.00000000</i>
   <i name="OMEGAMIN">    -30.00000000</i>
   <i name="OMEGATL">   -200.00000000</i>
   <i type="int" name="OMEGAGRID">     0</i>
   <i name="CSHIFT">     -0.10000000</i>
   <i type="logical" name="LSELFENERGY"> F  </i>
   <i type="logical" name="LSPECTRAL"> F  </i>
   <i type="logical" name="LSPECTRALGW"> F  </i>
   <i type="logical" name="LSINGLES"> F  </i>
   <i type="logical" name="LFERMIGW"> F  </i>
   <i type="logical" name="ODDONLYGW"> F  </i>
   <i type="logical" name="EVENONLYGW"> F  </i>
   <i type="int" name="NKREDLFX">     1</i>
   <i type="int" name="NKREDLFY">     1</i>
   <i type="int" name="NKREDLFZ">     1</i>
   <i type="int" name="MAXMEM">  2800</i>
   <i type="int" name="TELESCOPE">     0</i>
   <i type="int" name="NTAUPAR">    -1</i>
   <i type="int" name="NOMEGAPAR">    -1</i>
   <i name="DAMP_NEWTON">      0.80000001</i>
   <i name="LAMBDA">      1.00000000</i>
  </separator>
  <separator name="External order field" >
   <i name="OFIELD_KAPPA">      0.00000000</i>
   <v name="OFIELD_K">      0.00000000      0.00000000      0.00000000</v>
   <i name="OFIELD_Q6_NEAR">      0.00000000</i>
   <i name="OFIELD_Q6_FAR">      0.00000000</i>
   <i name="OFIELD_A">      0.00000000</i>
  </separator>
  <separator name="optional k-points parameters" >
   <i type="int" name="KPOINTS_OPT_MODE">     1</i>
   <i type="logical" name="LKPOINTS_OPT"> F  </i>
  </separator>
  <separator name="solvation model" >
   <i type="logical" name="LSOL"> F  </i>
  </separator>
 </parameters>
 <atominfo>
  <atoms>     216 </atoms>
  <types>       2 </types>
  <array name="atoms" >
   <dimension dim="1">ion</dimension>
   <field type="string">element</field>
   <field type="int">atomtype</field>
   <set>
    <rc><c>Ni</c><c>   1</c></rc>
    <rc><c>Ni</c><c>   1</c></rc>
    <rc><c>Ni</c><c>   1</c></rc>
    <rc><c>Ni</c><c>   1</c></rc>
    <rc><c>Ni</c><c>   1</c></rc>
    <rc><c>Ni</c><c>   1</c></rc>
    <rc><c>Ni</c><c>   1</c></rc>
    <rc><c>Ni</c><c>   1</c></rc>
    <rc><c>Ni</c><c>   1</c></rc>
    <rc><c>Ni</c><c>   1</c></rc>
    <rc><c>Ni</c><c>   1</c></rc>
    <rc><c>Ni</c><c>   1</c></rc>
    <rc><c>Ni</c><c>   1</c></rc>
    <rc><c>Ni</c><c>   1</c></rc>
    <rc><c>Ni</c><c>   1</c></rc>
    <rc><c>Ni</c><c>   1</c></rc>
    <rc><c>Ni</c><c>   1</c></rc>
    <rc><c>Ni</c><c>   1</c></rc>
    <rc><c>Ni</c><c>   1</c></rc>
    <rc><c>Ni</c><c>   1</c></rc>
    <rc><c>Ni</c><c>   1</c></rc>
    <rc><c>Ni</c><c>   1</c></rc>
    <rc><c>Ni</c><c>   1</c></rc>
    <rc><c>Ni</c><c>   1</c></rc>
    <rc><c>Ni</c><c>   1</c></rc>
    <rc><c>Ni</c><c>   1</c></rc>
    <rc><c>Ni</c><c>   1</c></rc>
    <rc><c>Ni</c><c>   1</c></rc>
    <rc><c>Ni</c><c>   1</c></rc>
    <rc><c>Ni</c><c>   1</c></rc>
    <rc><c>Ni</c><c>   1</c></rc>
    <rc><c>Ni</c><c>   1</c></rc>
    <rc><c>Ni</c><c>   1</c></rc>
    <rc><c>Ni</c><c>   1</c></rc>
    <rc><c>Ni</c><c>   1</c></rc>
    <rc><c>Ni</c><c>   1</c></rc>
    <rc><c>Ni</c><c>   1</c></rc>
    <rc><c>Ni</c><c>   1</c></rc>
    <rc><c>Ni</c><c>   1</c></rc>
    <rc><c>Ni</c><c>   1</c></rc>
    <rc><c>Ni</c><c>   1</c></rc>
    <rc><c>Ni</c><c>   1</c></rc>
    <rc><c>Ni</c><c>   1</c></rc>
    <rc><c>Ni</c><c>   1</c></rc>
    <rc><c>Ni</c><c>   1</c></rc>
    <rc><c>Ni</c><c>   1</c></rc>
    <rc><c>Ni</c><c>   1</c></rc>
    <rc><c>Ni</c><c>   1</c></rc>
    <rc><c>Ni</c><c>   1</c></rc>
    <rc><c>Ni</c><c>   1</c></rc>
    <rc><c>Ni</c><c>   1</c></rc>
    <rc><c>Ni</c><c>   1</c></rc>
    <rc><c>Ni</c><c>   1</c></rc>
    <rc><c>Ni</c><c>   1</c></rc>
    <rc><c>Ni</c><c>   1</c></rc>
    <rc><c>Ni</c><c>   1</c></rc>
    <rc><c>Ni</c><c>   1</c></rc>
    <rc><c>Ni</c><c>   1</c></rc>
    <rc><c>Ni</c><c>   1</c></rc>
    <rc><c>Ni</c><c>   1</c></rc>
    <rc><c>Ni</c><c>   1</c></rc>
    <rc><c>Ni</c><c>   1</c></rc>
    <rc><c>Ni</c><c>   1</c></rc>
    <rc><c>Ni</c><c>   1</c></rc>
    <rc><c>Ni</c><c>   1</c></rc>
    <rc><c>Ni</c><c>   1</c></rc>
    <rc><c>Ni</c><c>   1</c></rc>
    <rc><c>Ni</c><c>   1</c></rc>
    <rc><c>Ni</c><c>   1</c></rc>
    <rc><c>Ni</c><c>   1</c></rc>
    <rc><c>Ni</c><c>   1</c></rc>
    <rc><c>Ni</c><c>   1</c></rc>
    <rc><c>Ni</c><c>   1</c></rc>
    <rc><c>Ni</c><c>   1</c></rc>
    <rc><c>Ni</c><c>   1</c></rc>
    <rc><c>Ni</c><c>   1</c></rc>
    <rc><c>Ni</c><c>   1</c></rc>
    <rc><c>Ni</c><c>   1</c></rc>
    <rc><c>Ni</c><c>   1</c></rc>
    <rc><c>Ni</c><c>   1</c></rc>
    <rc><c>Ni</c><c>   1</c></rc>
    <rc><c>Ni</c><c>   1</c></rc>
    <rc><c>Ni</c><c>   1</c></rc>
    <rc><c>Ni</c><c>   1</c></rc>
    <rc><c>Ni</c><c>   1</c></rc>
    <rc><c>Ni</c><c>   1</c></rc>
    <rc><c>Ni</c><c>   1</c></rc>
    <rc><c>Ni</c><c>   1</c></rc>
    <rc><c>Ni</c><c>   1</c></rc>
    <rc><c>Ni</c><c>   1</c></rc>
    <rc><c>Ni</c><c>   1</c></rc>
    <rc><c>Ni</c><c>   1</c></rc>
    <rc><c>Ni</c><c>   1</c></rc>
    <rc><c>Ni</c><c>   1</c></rc>
    <rc><c>Ni</c><c>   1</c></rc>
    <rc><c>Ni</c><c>   1</c></rc>
    <rc><c>Ni</c><c>   1</c></rc>
    <rc><c>Ni</c><c>   1</c></rc>
    <rc><c>Ni</c><c>   1</c></rc>
    <rc><c>Ni</c><c>   1</c></rc>
    <rc><c>Ni</c><c>   1</c></rc>
    <rc><c>Ni</c><c>   1</c></rc>
    <rc><c>Ni</c><c>   1</c></rc>
    <rc><c>Ni</c><c>   1</c></rc>
    <rc><c>Ni</c><c>   1</c></rc>
    <rc><c>Ni</c><c>   1</c></rc>
    <rc><c>Ni</c><c>   1</c></rc>
    <rc><c>Ni</c><c>   1</c></rc>
    <rc><c>O </c><c>   2</c></rc>
    <rc><c>O </c><c>   2</c></rc>
    <rc><c>O </c><c>   2</c></rc>
    <rc><c>O </c><c>   2</c></rc>
    <rc><c>O </c><c>   2</c></rc>
    <rc><c>O </c><c>   2</c></rc>
    <rc><c>O </c><c>   2</c></rc>
    <rc><c>O </c><c>   2</c></rc>
    <rc><c>O </c><c>   2</c></rc>
    <rc><c>O </c><c>   2</c></rc>
    <rc><c>O </c><c>   2</c></rc>
    <rc><c>O </c><c>   2</c></rc>
    <rc><c>O </c><c>   2</c></rc>
    <rc><c>O </c><c>   2</c></rc>
    <rc><c>O </c><c>   2</c></rc>
    <rc><c>O </c><c>   2</c></rc>
    <rc><c>O </c><c>   2</c></rc>
    <rc><c>O </c><c>   2</c></rc>
    <rc><c>O </c><c>   2</c></rc>
    <rc><c>O </c><c>   2</c></rc>
    <rc><c>O </c><c>   2</c></rc>
    <rc><c>O </c><c>   2</c></rc>
    <rc><c>O </c><c>   2</c></rc>
    <rc><c>O </c><c>   2</c></rc>
    <rc><c>O </c><c>   2</c></rc>
    <rc><c>O </c><c>   2</c></rc>
    <rc><c>O </c><c>   2</c></rc>
    <rc><c>O </c><c>   2</c></rc>
    <rc><c>O </c><c>   2</c></rc>
    <rc><c>O </c><c>   2</c></rc>
    <rc><c>O </c><c>   2</c></rc>
    <rc><c>O </c><c>   2</c></rc>
    <rc><c>O </c><c>   2</c></rc>
    <rc><c>O </c><c>   2</c></rc>
    <rc><c>O </c><c>   2</c></rc>
    <rc><c>O </c><c>   2</c></rc>
    <rc><c>O </c><c>   2</c></rc>
    <rc><c>O </c><c>   2</c></rc>
    <rc><c>O </c><c>   2</c></rc>
    <rc><c>O </c><c>   2</c></rc>
    <rc><c>O </c><c>   2</c></rc>
    <rc><c>O </c><c>   2</c></rc>
    <rc><c>O </c><c>   2</c></rc>
    <rc><c>O </c><c>   2</c></rc>
    <rc><c>O </c><c>   2</c></rc>
    <rc><c>O </c><c>   2</c></rc>
    <rc><c>O </c><c>   2</c></rc>
    <rc><c>O </c><c>   2</c></rc>
    <rc><c>O </c><c>   2</c></rc>
    <rc><c>O </c><c>   2</c></rc>
    <rc><c>O </c><c>   2</c></rc>
    <rc><c>O </c><c>   2</c></rc>
    <rc><c>O </c><c>   2</c></rc>
    <rc><c>O </c><c>   2</c></rc>
    <rc><c>O </c><c>   2</c></rc>
    <rc><c>O </c><c>   2</c></rc>
    <rc><c>O </c><c>   2</c></rc>
    <rc><c>O </c><c>   2</c></rc>
    <rc><c>O </c><c>   2</c></rc>
    <rc><c>O </c><c>   2</c></rc>
    <rc><c>O </c><c>   2</c></rc>
    <rc><c>O </c><c>   2</c></rc>
    <rc><c>O </c><c>   2</c></rc>
    <rc><c>O </c><c>   2</c></rc>
    <rc><c>O </c><c>   2</c></rc>
    <rc><c>O </c><c>   2</c></rc>
    <rc><c>O </c><c>   2</c></rc>
    <rc><c>O </c><c>   2</c></rc>
    <rc><c>O </c><c>   2</c></rc>
    <rc><c>O </c><c>   2</c></rc>
    <rc><c>O </c><c>   2</c></rc>
    <rc><c>O </c><c>   2</c></rc>
    <rc><c>O </c><c>   2</c></rc>
    <rc><c>O </c><c>   2</c></rc>
    <rc><c>O </c><c>   2</c></rc>
    <rc><c>O </c><c>   2</c></rc>
    <rc><c>O </c><c>   2</c></rc>
    <rc><c>O </c><c>   2</c></rc>
    <rc><c>O </c><c>   2</c></rc>
    <rc><c>O </c><c>   2</c></rc>
    <rc><c>O </c><c>   2</c></rc>
    <rc><c>O </c><c>   2</c></rc>
    <rc><c>O </c><c>   2</c></rc>
    <rc><c>O </c><c>   2</c></rc>
    <rc><c>O </c><c>   2</c></rc>
    <rc><c>O </c><c>   2</c></rc>
    <rc><c>O </c><c>   2</c></rc>
    <rc><c>O </c><c>   2</c></rc>
    <rc><c>O </c><c>   2</c></rc>
    <rc><c>O </c><c>   2</c></rc>
    <rc><c>O </c><c>   2</c></rc>
    <rc><c>O </c><c>   2</c></rc>
    <rc><c>O </c><c>   2</c></rc>
    <rc><c>O </c><c>   2</c></rc>
    <rc><c>O </c><c>   2</c></rc>
    <rc><c>O </c><c>   2</c></rc>
    <rc><c>O </c><c>   2</c></rc>
    <rc><c>O </c><c>   2</c></rc>
    <rc><c>O </c><c>   2</c></rc>
    <rc><c>O </c><c>   2</c></rc>
    <rc><c>O </c><c>   2</c></rc>
    <rc><c>O </c><c>   2</c></rc>
    <rc><c>O </c><c>   2</c></rc>
    <rc><c>O </c><c>   2</c></rc>
    <rc><c>O </c><c>   2</c></rc>
    <rc><c>O </c><c>   2</c></rc>
    <rc><c>O </c><c>   2</c></rc>
    <rc><c>O </c><c>   2</c></rc>
   </set>
  </array>
  <array name="atomtypes" >
   <dimension dim="1">type</dimension>
   <field type="int">atomspertype</field>
   <field type="string">element</field>
   <field>mass</field>
   <field>valence</field>
   <field type="string">pseudopotential</field>
   <set>
    <rc><c> 108</c><c>Ni</c><c>     58.69000000</c><c>     10.00000000</c><c>  PAW Ni_GW 31Mar2010                   </c></rc>
    <rc><c> 108</c><c>O </c><c>     16.00000000</c><c>      6.00000000</c><c>  PAW O_GW 19Mar2012                    </c></rc>
   </set>
  </array>
 </atominfo>
 <structure name="initialpos" >
  <crystal>
   <varray name="basis" >
    <v>      12.64985847       0.00000000       0.00000000 </v>
    <v>       0.00000000      12.64985847       0.00000000 </v>
    <v>       0.00000000       0.00000000      25.64985847 </v>
   </varray>
   <i name="volume">   4104.46263665 </i>
   <varray name="rec_basis" >
    <v>       0.07905227       0.00000000       0.00000000 </v>
    <v>       0.00000000       0.07905227       0.00000000 </v>
    <v>       0.00000000       0.00000000       0.03898657 </v>
   </varray>
  </crystal>
  <varray name="positions" >
   <v>       0.00000000       0.00000000       0.00000000 </v>
   <v>       0.00000000       0.00000000       0.16439154 </v>
   <v>       0.00000000       0.00000000       0.32878307 </v>
   <v>       0.00000000       0.33333334       0.00000000 </v>
   <v>       0.00000000       0.33333334       0.16439154 </v>
   <v>       0.00000000       0.33333334       0.32878307 </v>
   <v>       0.00000000       0.66666669       0.00000000 </v>
   <v>       0.00000000       0.66666669       0.16439154 </v>
   <v>       0.00000000       0.66666669       0.32878307 </v>
   <v>       0.33333334       0.00000000       0.00000000 </v>
   <v>       0.33333334       0.00000000       0.16439154 </v>
   <v>       0.33333334       0.00000000       0.32878307 </v>
   <v>       0.33333334       0.33333334       0.00000000 </v>
   <v>       0.33333334       0.33333334       0.16439154 </v>
   <v>       0.33333334       0.33333334       0.32878307 </v>
   <v>       0.33333334       0.66666669       0.00000000 </v>
   <v>       0.33333334       0.66666669       0.16439154 </v>
   <v>       0.33333334       0.66666669       0.32878307 </v>
   <v>       0.66666669       0.00000000       0.00000000 </v>
   <v>       0.66666669       0.00000000       0.16439154 </v>
   <v>       0.66666669       0.00000000       0.32878307 </v>
   <v>       0.66666669       0.33333334       0.00000000 </v>
   <v>       0.66666669       0.33333334       0.16439154 </v>
   <v>       0.66666669       0.33333334       0.32878307 </v>
   <v>       0.66666669       0.66666669       0.00000000 </v>
   <v>       0.66666669       0.66666669       0.16439154 </v>
   <v>       0.66666669       0.66666669       0.32878307 </v>
   <v>       0.00000000       0.16666667       0.08219577 </v>
   <v>       0.00000000       0.16666667       0.24658730 </v>
   <v>       0.00000000       0.16666667       0.41097882 </v>
   <v>       0.00000000       0.50000000       0.08219577 </v>
   <v>       0.00000000       0.50000000       0.24658730 </v>
   <v>       0.00000000       0.50000000       0.41097882 </v>
   <v>       0.00000000       0.83333331       0.08219577 </v>
   <v>       0.00000000       0.83333331       0.24658730 </v>
   <v>       0.00000000       0.83333331       0.41097882 </v>
   <v>       0.33333334       0.16666667       0.08219577 </v>
   <v>       0.33333334       0.16666667       0.24658730 </v>
   <v>       0.33333334       0.16666667       0.41097882 </v>
   <v>       0.33333334       0.50000000       0.08219577 </v>
   <v>       0.33333334       0.50000000       0.24658730 </v>
   <v>       0.33333334       0.50000000       0.41097882 </v>
   <v>       0.33333334       0.83333331       0.08219577 </v>
   <v>       0.33333334       0.83333331       0.24658730 </v>
   <v>       0.33333334       0.83333331       0.41097882 </v>
   <v>       0.66666669       0.16666667       0.08219577 </v>
   <v>       0.66666669       0.16666667       0.24658730 </v>
   <v>       0.66666669       0.16666667       0.41097882 </v>
   <v>       0.66666669       0.50000000       0.08219577 </v>
   <v>       0.66666669       0.50000000       0.24658730 </v>
   <v>       0.66666669       0.50000000       0.41097882 </v>
   <v>       0.66666669       0.83333331       0.08219577 </v>
   <v>       0.66666669       0.83333331       0.24658730 </v>
   <v>       0.66666669       0.83333331       0.41097882 </v>
   <v>       0.16666667       0.00000000       0.08219577 </v>
   <v>       0.16666667       0.00000000       0.24658730 </v>
   <v>       0.16666667       0.00000000       0.41097882 </v>
   <v>       0.16666667       0.33333334       0.08219577 </v>
   <v>       0.16666667       0.33333334       0.24658730 </v>
   <v>       0.16666667       0.33333334       0.41097882 </v>
   <v>       0.16666667       0.66666669       0.08219577 </v>
   <v>       0.16666667       0.66666669       0.24658730 </v>
   <v>       0.16666667       0.66666669       0.41097882 </v>
   <v>       0.50000000       0.00000000       0.08219577 </v>
   <v>       0.50000000       0.00000000       0.24658730 </v>
   <v>       0.50000000       0.00000000       0.41097882 </v>
   <v>       0.50000000       0.33333334       0.08219577 </v>
   <v>       0.50000000       0.33333334       0.24658730 </v>
   <v>       0.50000000       0.33333334       0.41097882 </v>
   <v>       0.50000000       0.66666669       0.08219577 </v>
   <v>       0.50000000       0.66666669       0.24658730 </v>
   <v>       0.50000000       0.66666669       0.41097882 </v>
   <v>       0.83333331       0.00000000       0.08219577 </v>
   <v>       0.83333331       0.00000000       0.24658730 </v>
   <v>       0.83333331       0.00000000       0.41097882 </v>
   <v>       0.83333331       0.33333334       0.08219577 </v>
   <v>       0.83333331       0.33333334       0.24658730 </v>
   <v>       0.83333331       0.33333334       0.41097882 </v>
   <v>       0.83333331       0.66666669       0.08219577 </v>
   <v>       0.83333331       0.66666669       0.24658730 </v>
   <v>       0.83333331       0.66666669       0.41097882 </v>
   <v>       0.16666667       0.16666667       0.00000000 </v>
   <v>       0.16666667       0.16666667       0.16439154 </v>
   <v>       0.16666667       0.16666667       0.32878307 </v>
   <v>       0.16666667       0.50000000       0.00000000 </v>
   <v>       0.16666667       0.50000000       0.16439154 </v>
   <v>       0.16666667       0.50000000       0.32878307 </v>
   <v>       0.16666667       0.83333331       0.00000000 </v>
   <v>       0.16666667       0.83333331       0.16439154 </v>
   <v>       0.16666667       0.83333331       0.32878307 </v>
   <v>       0.50000000       0.16666667       0.00000000 </v>
   <v>       0.50000000       0.16666667       0.16439154 </v>
   <v>       0.50000000       0.16666667       0.32878307 </v>
   <v>       0.50000000       0.50000000       0.00000000 </v>
   <v>       0.50000000       0.50000000       0.16439154 </v>
   <v>       0.50000000       0.50000000       0.32878307 </v>
   <v>       0.50000000       0.83333331       0.00000000 </v>
   <v>       0.50000000       0.83333331       0.16439154 </v>
   <v>       0.50000000       0.83333331       0.32878307 </v>
   <v>       0.83333331       0.16666667       0.00000000 </v>
   <v>       0.83333331       0.16666667       0.16439154 </v>
   <v>       0.83333331       0.16666667       0.32878307 </v>
   <v>       0.83333331       0.50000000       0.00000000 </v>
   <v>       0.83333331       0.50000000       0.16439154 </v>
   <v>       0.83333331       0.50000000       0.32878307 </v>
   <v>       0.83333331       0.83333331       0.00000000 </v>
   <v>       0.83333331       0.83333331       0.16439154 </v>
   <v>       0.83333331       0.83333331       0.32878307 </v>
   <v>       0.16666667       0.00000000       0.00000000 </v>
   <v>       0.16666667       0.00000000       0.16439154 </v>
   <v>       0.16666667       0.00000000       0.32878307 </v>
   <v>       0.16666667       0.33333334       0.00000000 </v>
   <v>       0.16666667       0.33333334       0.16439154 </v>
   <v>       0.16666667       0.33333334       0.32878307 </v>
   <v>       0.16666667       0.66666669       0.00000000 </v>
   <v>       0.16666667       0.66666669       0.16439154 </v>
   <v>       0.16666667       0.66666669       0.32878307 </v>
   <v>       0.50000000       0.00000000       0.00000000 </v>
   <v>       0.50000000       0.00000000       0.16439154 </v>
   <v>       0.50000000       0.00000000       0.32878307 </v>
   <v>       0.50000000       0.33333334       0.00000000 </v>
   <v>       0.50000000       0.33333334       0.16439154 </v>
   <v>       0.50000000       0.33333334       0.32878307 </v>
   <v>       0.50000000       0.66666669       0.00000000 </v>
   <v>       0.50000000       0.66666669       0.16439154 </v>
   <v>       0.50000000       0.66666669       0.32878307 </v>
   <v>       0.83333331       0.00000000       0.00000000 </v>
   <v>       0.83333331       0.00000000       0.16439154 </v>
   <v>       0.83333331       0.00000000       0.32878307 </v>
   <v>       0.83333331       0.33333334       0.00000000 </v>
   <v>       0.83333331       0.33333334       0.16439154 </v>
   <v>       0.83333331       0.33333334       0.32878307 </v>
   <v>       0.83333331       0.66666669       0.00000000 </v>
   <v>       0.83333331       0.66666669       0.16439154 </v>
   <v>       0.83333331       0.66666669       0.32878307 </v>
   <v>       0.16666667       0.16666667       0.08219577 </v>
   <v>       0.16666667       0.16666667       0.24658730 </v>
   <v>       0.16666667       0.16666667       0.41097882 </v>
   <v>       0.16666667       0.50000000       0.08219577 </v>
   <v>       0.16666667       0.50000000       0.24658730 </v>
   <v>       0.16666667       0.50000000       0.41097882 </v>
   <v>       0.16666667       0.83333331       0.08219577 </v>
   <v>       0.16666667       0.83333331       0.24658730 </v>
   <v>       0.16666667       0.83333331       0.41097882 </v>
   <v>       0.50000000       0.16666667       0.08219577 </v>
   <v>       0.50000000       0.16666667       0.24658730 </v>
   <v>       0.50000000       0.16666667       0.41097882 </v>
   <v>       0.50000000       0.50000000       0.08219577 </v>
   <v>       0.50000000       0.50000000       0.24658730 </v>
   <v>       0.50000000       0.50000000       0.41097882 </v>
   <v>       0.50000000       0.83333331       0.08219577 </v>
   <v>       0.50000000       0.83333331       0.24658730 </v>
   <v>       0.50000000       0.83333331       0.41097882 </v>
   <v>       0.83333331       0.16666667       0.08219577 </v>
   <v>       0.83333331       0.16666667       0.24658730 </v>
   <v>       0.83333331       0.16666667       0.41097882 </v>
   <v>       0.83333331       0.50000000       0.08219577 </v>
   <v>       0.83333331       0.50000000       0.24658730 </v>
   <v>       0.83333331       0.50000000       0.41097882 </v>
   <v>       0.83333331       0.83333331       0.08219577 </v>
   <v>       0.83333331       0.83333331       0.24658730 </v>
   <v>       0.83333331       0.83333331       0.41097882 </v>
   <v>       0.00000000       0.00000000       0.08219577 </v>
   <v>       0.00000000       0.00000000       0.24658730 </v>
   <v>       0.00000000       0.00000000       0.41097882 </v>
   <v>       0.00000000       0.33333334       0.08219577 </v>
   <v>       0.00000000       0.33333334       0.24658730 </v>
   <v>       0.00000000       0.33333334       0.41097882 </v>
   <v>       0.00000000       0.66666669       0.08219577 </v>
   <v>       0.00000000       0.66666669       0.24658730 </v>
   <v>       0.00000000       0.66666669       0.41097882 </v>
   <v>       0.33333334       0.00000000       0.08219577 </v>
   <v>       0.33333334       0.00000000       0.24658730 </v>
   <v>       0.33333334       0.00000000       0.41097882 </v>
   <v>       0.33333334       0.33333334       0.08219577 </v>
   <v>       0.33333334       0.33333334       0.24658730 </v>
   <v>       0.33333334       0.33333334       0.41097882 </v>
   <v>       0.33333334       0.66666669       0.08219577 </v>
   <v>       0.33333334       0.66666669       0.24658730 </v>
   <v>       0.33333334       0.66666669       0.41097882 </v>
   <v>       0.66666669       0.00000000       0.08219577 </v>
   <v>       0.66666669       0.00000000       0.24658730 </v>
   <v>       0.66666669       0.00000000       0.41097882 </v>
   <v>       0.66666669       0.33333334       0.08219577 </v>
   <v>       0.66666669       0.33333334       0.24658730 </v>
   <v>       0.66666669       0.33333334       0.41097882 </v>
   <v>       0.66666669       0.66666669       0.08219577 </v>
   <v>       0.66666669       0.66666669       0.24658730 </v>
   <v>       0.66666669       0.66666669       0.41097882 </v>
   <v>       0.00000000       0.16666667       0.00000000 </v>
   <v>       0.00000000       0.16666667       0.16439154 </v>
   <v>       0.00000000       0.16666667       0.32878307 </v>
   <v>       0.00000000       0.50000000       0.00000000 </v>
   <v>       0.00000000       0.50000000       0.16439154 </v>
   <v>       0.00000000       0.50000000       0.32878307 </v>
   <v>       0.00000000       0.83333331       0.00000000 </v>
   <v>       0.00000000       0.83333331       0.16439154 </v>
   <v>       0.00000000       0.83333331       0.32878307 </v>
   <v>       0.33333334       0.16666667       0.00000000 </v>
   <v>       0.33333334       0.16666667       0.16439154 </v>
   <v>       0.33333334       0.16666667       0.32878307 </v>
   <v>       0.33333334       0.50000000       0.00000000 </v>
   <v>       0.33333334       0.50000000       0.16439154 </v>
   <v>       0.33333334       0.50000000       0.32878307 </v>
   <v>       0.33333334       0.83333331       0.00000000 </v>
   <v>       0.33333334       0.83333331       0.16439154 </v>
   <v>       0.33333334       0.83333331       0.32878307 </v>
   <v>       0.66666669       0.16666667       0.00000000 </v>
   <v>       0.66666669       0.16666667       0.16439154 </v>
   <v>       0.66666669       0.16666667       0.32878307 </v>
   <v>       0.66666669       0.50000000       0.00000000 </v>
   <v>       0.66666669       0.50000000       0.16439154 </v>
   <v>       0.66666669       0.50000000       0.32878307 </v>
   <v>       0.66666669       0.83333331       0.00000000 </v>
   <v>       0.66666669       0.83333331       0.16439154 </v>
   <v>       0.66666669       0.83333331       0.32878307 </v>
  </varray>
 </structure>
 <calculation>
  <scstep>
   <time name="dav">   17.57   17.58</time>
   <time name="total">   18.03   18.06</time>
   <energy>
    <i name="alphaZ">   5436.21895898 </i>
    <i name="ewald"> 812878.12743705 </i>
    <i name="hartreedc">-969692.12252041 </i>
    <i name="XCdc">   4011.07387921 </i>
    <i name="pawpsdc"> 140542.89823795 </i>
    <i name="pawaedc">-148839.50927836 </i>
    <i name="eentropy">     -0.09920831 </i>
    <i name="bandstr">  10314.06600450 </i>
    <i name="atom"> 163037.43952548 </i>
    <i name="e_fr_energy">  17688.09303609 </i>
    <i name="e_wo_entrp">  17688.19224440 </i>
    <i name="e_0_energy">  17688.14264025 </i>
   </energy>
  </scstep>
  <scstep>
   <time name="dav">   18.19   18.19</time>
   <time name="total">   18.19   18.20</time>
   <energy>
    <i name="e_fr_energy">   1742.61215765 </i>
    <i name="e_wo_entrp">   1742.73340089 </i>
    <i name="e_0_energy">   1742.67277927 </i>
   </energy>
  </scstep>
  <scstep>
   <time name="dav">   23.06   23.07</time>
   <time name="total">   23.06   23.07</time>
   <energy>
    <i name="e_fr_energy">  -1125.71559012 </i>
    <i name="e_wo_entrp">  -1125.34493891 </i>
    <i name="e_0_energy">  -1125.53026452 </i>
   </energy>
  </scstep>
  <scstep>
   <time name="dav">   25.31   25.31</time>
   <time name="total">   25.31   25.32</time>
   <energy>
    <i name="e_fr_energy">  -1419.69162289 </i>
    <i name="e_wo_entrp">  -1419.24760440 </i>
    <i name="e_0_energy">  -1419.46961364 </i>
   </energy>
  </scstep>
  <scstep>
   <time name="dav">   25.62   25.62</time>
   <time name="total">   27.24   27.25</time>
   <energy>
    <i name="e_fr_energy">  -1435.39489162 </i>
    <i name="e_wo_entrp">  -1434.92526578 </i>
    <i name="e_0_energy">  -1435.16007870 </i>
   </energy>
  </scstep>
  <scstep>
   <time name="dav">   22.82   22.82</time>
   <time name="total">   24.83   24.84</time>
   <energy>
    <i name="e_fr_energy">  -1416.22683612 </i>
    <i name="e_wo_entrp">  -1416.00894478 </i>
    <i name="e_0_energy">  -1416.11789045 </i>
   </energy>
  </scstep>
  <scstep>
   <time name="dav">   18.46   18.46</time>
   <time name="total">   20.49   20.50</time>
   <energy>
    <i name="e_fr_energy">  -1357.66498166 </i>
    <i name="e_wo_entrp">  -1357.27449159 </i>
    <i name="e_0_energy">  -1357.46973662 </i>
   </energy>
  </scstep>
  <scstep>
   <time name="dav">   20.84   20.84</time>
   <time name="total">   22.84   22.85</time>
   <energy>
    <i name="e_fr_energy">  -1399.07308125 </i>
    <i name="e_wo_entrp">  -1398.65046786 </i>
    <i name="e_0_energy">  -1398.86177456 </i>
   </energy>
  </scstep>
  <scstep>
   <time name="dav">   21.24   21.24</time>
   <time name="total">   23.24   23.25</time>
   <energy>
    <i name="e_fr_energy">  -1617.79416087 </i>
    <i name="e_wo_entrp">  -1617.14704653 </i>
    <i name="e_0_energy">  -1617.47060370 </i>
   </energy>
  </scstep>
  <scstep>
   <time name="dav">   19.65   19.66</time>
   <time name="total">   21.68   21.68</time>
   <energy>
    <i name="e_fr_energy">  -1270.23355688 </i>
    <i name="e_wo_entrp">  -1270.11169558 </i>
    <i name="e_0_energy">  -1270.17262623 </i>
   </energy>
  </scstep>
  <scstep>
   <time name="dav">   21.41   21.41</time>
   <time name="total">   23.44   23.44</time>
   <energy>
    <i name="e_fr_energy">  -1351.04305324 </i>
    <i name="e_wo_entrp">  -1350.61664501 </i>
    <i name="e_0_energy">  -1350.82984912 </i>
   </energy>
  </scstep>
  <scstep>
   <time name="dav">   19.93   19.93</time>
   <time name="total">   21.92   21.92</time>
   <energy>
    <i name="e_fr_energy">  -1230.67592686 </i>
    <i name="e_wo_entrp">  -1230.43637492 </i>
    <i name="e_0_energy">  -1230.55615089 </i>
   </energy>
  </scstep>
  <scstep>
   <time name="dav">   24.00   24.01</time>
   <time name="total">   26.05   26.06</time>
   <energy>
    <i name="e_fr_energy">  -1202.41052978 </i>
    <i name="e_wo_entrp">  -1202.23488460 </i>
    <i name="e_0_energy">  -1202.32270719 </i>
   </energy>
  </scstep>
  <scstep>
   <time name="dav">   23.99   24.00</time>
   <time name="total">   26.04   26.05</time>
   <energy>
    <i name="e_fr_energy">  -1204.44649716 </i>
    <i name="e_wo_entrp">  -1204.26883566 </i>
    <i name="e_0_energy">  -1204.35766641 </i>
   </energy>
  </scstep>
  <scstep>
   <time name="dav">   19.10   19.10</time>
   <time name="total">   21.12   21.13</time>
   <energy>
    <i name="e_fr_energy">  -1197.15170900 </i>
    <i name="e_wo_entrp">  -1196.80055983 </i>
    <i name="e_0_energy">  -1196.97613442 </i>
   </energy>
  </scstep>
  <scstep>
   <time name="dav">   21.78   21.79</time>
   <time name="total">   23.80   23.81</time>
   <energy>
    <i name="e_fr_energy">  -1196.80211714 </i>
    <i name="e_wo_entrp">  -1196.44319526 </i>
    <i name="e_0_energy">  -1196.62265620 </i>
   </energy>
  </scstep>
  <scstep>
   <time name="dav">   26.95   26.96</time>
   <time name="total">   29.02   29.02</time>
   <energy>
    <i name="e_fr_energy">  -1194.18275426 </i>
    <i name="e_wo_entrp">  -1193.80689304 </i>
    <i name="e_0_energy">  -1193.99482365 </i>
   </energy>
  </scstep>
  <scstep>
   <time name="dav">   24.88   24.88</time>
   <time name="total">   26.93   26.94</time>
   <energy>
    <i name="e_fr_energy">  -1193.69454715 </i>
    <i name="e_wo_entrp">  -1193.31832665 </i>
    <i name="e_0_energy">  -1193.50643690 </i>
   </energy>
  </scstep>
  <scstep>
   <time name="dav">   18.65   18.65</time>
   <time name="total">   20.67   20.68</time>
   <energy>
    <i name="e_fr_energy">  -1193.73727586 </i>
    <i name="e_wo_entrp">  -1193.33456035 </i>
    <i name="e_0_energy">  -1193.53591810 </i>
   </energy>
  </scstep>
  <scstep>
   <time name="dav">   26.55   26.55</time>
   <time name="total">   28.62   28.62</time>
   <energy>
    <i name="e_fr_energy">  -1193.52414804 </i>
    <i name="e_wo_entrp">  -1193.12659683 </i>
    <i name="e_0_energy">  -1193.32537244 </i>
   </energy>
  </scstep>
  <scstep>
   <time name="dav">   21.09   21.09</time>
   <time name="total">   23.20   23.20</time>
   <energy>
    <i name="e_fr_energy">  -1193.49780133 </i>
    <i name="e_wo_entrp">  -1193.09232825 </i>
    <i name="e_0_energy">  -1193.29506479 </i>
   </energy>
  </scstep>
  <scstep>
   <time name="dav">   25.64   25.65</time>
   <time name="total">   27.73   27.73</time>
   <energy>
    <i name="e_fr_energy">  -1193.35519439 </i>
    <i name="e_wo_entrp">  -1192.96418744 </i>
    <i name="e_0_energy">  -1193.15969092 </i>
   </energy>
  </scstep>
  <scstep>
   <time name="dav">   19.28   19.29</time>
   <time name="total">   21.35   21.36</time>
   <energy>
    <i name="e_fr_energy">  -1193.34537723 </i>
    <i name="e_wo_entrp">  -1192.95477335 </i>
    <i name="e_0_energy">  -1193.15007529 </i>
   </energy>
  </scstep>
  <scstep>
   <time name="dav">   24.49   24.50</time>
   <time name="total">   26.61   26.62</time>
   <energy>
    <i name="e_fr_energy">  -1193.32493768 </i>
    <i name="e_wo_entrp">  -1192.93815722 </i>
    <i name="e_0_energy">  -1193.13154745 </i>
   </energy>
  </scstep>
  <scstep>
   <time name="dav">   28.17   28.18</time>
   <time name="total">   30.30   30.30</time>
   <energy>
    <i name="e_fr_energy">  -1193.27307371 </i>
    <i name="e_wo_entrp">  -1192.89325050 </i>
    <i name="e_0_energy">  -1193.08316210 </i>
   </energy>
  </scstep>
  <scstep>
   <time name="dav">   21.52   21.52</time>
   <time name="total">   23.64   23.64</time>
   <energy>
    <i name="e_fr_energy">  -1193.26117559 </i>
    <i name="e_wo_entrp">  -1192.88284844 </i>
    <i name="e_0_energy">  -1193.07201201 </i>
   </energy>
  </scstep>
  <scstep>
   <time name="dav">   27.70   27.70</time>
   <time name="total">   29.84   29.85</time>
   <energy>
    <i name="e_fr_energy">  -1193.25147531 </i>
    <i name="e_wo_entrp">  -1192.87650795 </i>
    <i name="e_0_energy">  -1193.06399163 </i>
   </energy>
  </scstep>
  <scstep>
   <time name="dav">   26.30   26.31</time>
   <time name="total">   28.45   28.46</time>
   <energy>
    <i name="e_fr_energy">  -1193.24657221 </i>
    <i name="e_wo_entrp">  -1192.87375649 </i>
    <i name="e_0_energy">  -1193.06016435 </i>
   </energy>
  </scstep>
  <scstep>
   <time name="dav">   21.89   21.90</time>
   <time name="total">   24.04   24.05</time>
   <energy>
    <i name="e_fr_energy">  -1193.24603407 </i>
    <i name="e_wo_entrp">  -1192.87423552 </i>
    <i name="e_0_energy">  -1193.06013480 </i>
   </energy>
  </scstep>
  <scstep>
   <time name="dav">   21.89   21.90</time>
   <time name="total">   24.05   24.05</time>
   <energy>
    <i name="e_fr_energy">  -1193.24685979 </i>
    <i name="e_wo_entrp">  -1192.87510989 </i>
    <i name="e_0_energy">  -1193.06098484 </i>
   </energy>
  </scstep>
  <scstep>
   <time name="dav">   20.66   20.67</time>
   <time name="total">   22.82   22.82</time>
   <energy>
    <i name="e_fr_energy">  -1193.24682510 </i>
    <i name="e_wo_entrp">  -1192.87498641 </i>
    <i name="e_0_energy">  -1193.06090576 </i>
   </energy>
  </scstep>
  <scstep>
   <time name="dav">   24.31   24.32</time>
   <time name="total">   26.50   26.50</time>
   <energy>
    <i name="e_fr_energy">  -1193.24673387 </i>
    <i name="e_wo_entrp">  -1192.87443458 </i>
    <i name="e_0_energy">  -1193.06058423 </i>
   </energy>
  </scstep>
  <scstep>
   <time name="dav">   23.13   23.13</time>
   <time name="total">   25.31   25.31</time>
   <energy>
    <i name="e_fr_energy">  -1193.24701141 </i>
    <i name="e_wo_entrp">  -1192.87478456 </i>
    <i name="e_0_energy">  -1193.06089798 </i>
   </energy>
  </scstep>
  <scstep>
   <time name="dav">   25.53   25.54</time>
   <time name="total">   27.74   27.75</time>
   <energy>
    <i name="e_fr_energy">  -1193.24702373 </i>
    <i name="e_wo_entrp">  -1192.87455650 </i>
    <i name="e_0_energy">  -1193.06079011 </i>
   </energy>
  </scstep>
  <scstep>
   <time name="dav">   24.50   24.51</time>
   <time name="total">   26.68   26.69</time>
   <energy>
    <i name="e_fr_energy">  -1193.24730854 </i>
    <i name="e_wo_entrp">  -1192.87450617 </i>
    <i name="e_0_energy">  -1193.06090736 </i>
   </energy>
  </scstep>
  <scstep>
   <time name="dav">   24.60   24.61</time>
   <time name="total">   26.84   26.85</time>
   <energy>
    <i name="e_fr_energy">  -1193.24749962 </i>
    <i name="e_wo_entrp">  -1192.87464466 </i>
    <i name="e_0_energy">  -1193.06107214 </i>
   </energy>
  </scstep>
  <scstep>
   <time name="dav">   23.30   23.31</time>
   <time name="total">   25.54   25.55</time>
   <energy>
    <i name="e_fr_energy">  -1193.24754578 </i>
    <i name="e_wo_entrp">  -1192.87487367 </i>
    <i name="e_0_energy">  -1193.06120972 </i>
   </energy>
  </scstep>
  <scstep>
   <time name="dav">   20.89   20.90</time>
   <time name="total">   23.10   23.10</time>
   <energy>
    <i name="e_fr_energy">  -1193.24757932 </i>
    <i name="e_wo_entrp">  -1192.87487539 </i>
    <i name="e_0_energy">  -1193.06122736 </i>
   </energy>
  </scstep>
  <scstep>
   <time name="dav">   24.44   24.45</time>
   <time name="total">   26.70   26.71</time>
   <energy>
    <i name="e_fr_energy">  -1193.24758653 </i>
    <i name="e_wo_entrp">  -1192.87487811 </i>
    <i name="e_0_energy">  -1193.06123232 </i>
   </energy>
  </scstep>
  <scstep>
   <time name="dav">   15.02   15.02</time>
   <time name="total">   17.26   17.26</time>
   <energy>
    <i name="e_fr_energy">  -1193.24758917 </i>
    <i name="e_wo_entrp">  -1192.87488192 </i>
    <i name="e_0_energy">  -1193.06123555 </i>
   </energy>
  </scstep>
  <scstep>
   <time name="dav">   17.92   17.93</time>
   <time name="total">   20.18   20.18</time>
   <energy>
    <i name="e_fr_energy">  -1193.24759349 </i>
    <i name="e_wo_entrp">  -1192.87488969 </i>
    <i name="e_0_energy">  -1193.06124159 </i>
   </energy>
  </scstep>
  <scstep>
   <time name="dav">   12.93   12.93</time>
   <time name="total">   15.19   15.20</time>
   <energy>
    <i name="e_fr_energy">  -1193.24759373 </i>
    <i name="e_wo_entrp">  -1192.87487986 </i>
    <i name="e_0_energy">  -1193.06123679 </i>
   </energy>
  </scstep>
  <scstep>
   <time name="dav">   11.53   11.53</time>
   <time name="total">   13.81   13.81</time>
   <energy>
    <i name="e_fr_energy">  -1193.24759458 </i>
    <i name="e_wo_entrp">  -1192.87488949 </i>
    <i name="e_0_energy">  -1193.06124204 </i>
   </energy>
  </scstep>
  <scstep>
   <time name="dav">   11.90   11.90</time>
   <time name="total">   14.16   14.17</time>
   <energy>
    <i name="e_fr_energy">  -1193.24759544 </i>
    <i name="e_wo_entrp">  -1192.87490517 </i>
    <i name="e_0_energy">  -1193.06125030 </i>
   </energy>
  </scstep>
  <scstep>
   <time name="dav">   12.74   12.74</time>
   <time name="total">   15.05   15.05</time>
   <energy>
    <i name="e_fr_energy">  -1193.24759587 </i>
    <i name="e_wo_entrp">  -1192.87490513 </i>
    <i name="e_0_energy">  -1193.06125050 </i>
   </energy>
  </scstep>
  <scstep>
   <time name="dav">   11.92   11.93</time>
   <time name="total">   12.36   12.36</time>
   <energy>
    <i name="alphaZ">   5436.21895898 </i>
    <i name="ewald"> 812878.12743705 </i>
    <i name="hartreedc">-970342.66265019 </i>
    <i name="XCdc">   4024.46142432 </i>
    <i name="pawpsdc"> 179270.34064662 </i>
    <i name="pawaedc">-187670.48557815 </i>
    <i name="eentropy">     -0.37269077 </i>
    <i name="bandstr">  -7826.31466924 </i>
    <i name="atom"> 163037.43952548 </i>
    <i name="e_fr_energy">  -1193.24759590 </i>
    <i name="e_wo_entrp">  -1192.87490513 </i>
    <i name="e_0_energy">  -1193.06125051 </i>
   </energy>
  </scstep>
  <structure>
   <crystal>
    <varray name="basis" >
     <v>      12.64985847       0.00000000       0.00000000 </v>
     <v>       0.00000000      12.64985847       0.00000000 </v>
     <v>       0.00000000       0.00000000      25.64985847 </v>
    </varray>
    <i name="volume">   4104.46263665 </i>
    <varray name="rec_basis" >
     <v>       0.07905227       0.00000000       0.00000000 </v>
     <v>       0.00000000       0.07905227       0.00000000 </v>
     <v>       0.00000000       0.00000000       0.03898657 </v>
    </varray>
   </crystal>
   <varray name="positions" >
    <v>       0.00000000       0.00000000       0.00000000 </v>
    <v>       0.00000000       0.00000000       0.16439154 </v>
    <v>       0.00000000       0.00000000       0.32878307 </v>
    <v>       0.00000000       0.33333334       0.00000000 </v>
    <v>       0.00000000       0.33333334       0.16439154 </v>
    <v>       0.00000000       0.33333334       0.32878307 </v>
    <v>       0.00000000       0.66666669       0.00000000 </v>
    <v>       0.00000000       0.66666669       0.16439154 </v>
    <v>       0.00000000       0.66666669       0.32878307 </v>
    <v>       0.33333334       0.00000000       0.00000000 </v>
    <v>       0.33333334       0.00000000       0.16439154 </v>
    <v>       0.33333334       0.00000000       0.32878307 </v>
    <v>       0.33333334       0.33333334       0.00000000 </v>
    <v>       0.33333334       0.33333334       0.16439154 </v>
    <v>       0.33333334       0.33333334       0.32878307 </v>
    <v>       0.33333334       0.66666669       0.00000000 </v>
    <v>       0.33333334       0.66666669       0.16439154 </v>
    <v>       0.33333334       0.66666669       0.32878307 </v>
    <v>       0.66666669       0.00000000       0.00000000 </v>
    <v>       0.66666669       0.00000000       0.16439154 </v>
    <v>       0.66666669       0.00000000       0.32878307 </v>
    <v>       0.66666669       0.33333334       0.00000000 </v>
    <v>       0.66666669       0.33333334       0.16439154 </v>
    <v>       0.66666669       0.33333334       0.32878307 </v>
    <v>       0.66666669       0.66666669       0.00000000 </v>
    <v>       0.66666669       0.66666669       0.16439154 </v>
    <v>       0.66666669       0.66666669       0.32878307 </v>
    <v>       0.00000000       0.16666667       0.08219577 </v>
    <v>       0.00000000       0.16666667       0.24658730 </v>
    <v>       0.00000000       0.16666667       0.41097882 </v>
    <v>       0.00000000       0.50000000       0.08219577 </v>
    <v>       0.00000000       0.50000000       0.24658730 </v>
    <v>       0.00000000       0.50000000       0.41097882 </v>
    <v>       0.00000000       0.83333331       0.08219577 </v>
    <v>       0.00000000       0.83333331       0.24658730 </v>
    <v>       0.00000000       0.83333331       0.41097882 </v>
    <v>       0.33333334       0.16666667       0.08219577 </v>
    <v>       0.33333334       0.16666667       0.24658730 </v>
    <v>       0.33333334       0.16666667       0.41097882 </v>
    <v>       0.33333334       0.50000000       0.08219577 </v>
    <v>       0.33333334       0.50000000       0.24658730 </v>
    <v>       0.33333334       0.50000000       0.41097882 </v>
    <v>       0.33333334       0.83333331       0.08219577 </v>
    <v>       0.33333334       0.83333331       0.24658730 </v>
    <v>       0.33333334       0.83333331       0.41097882 </v>
    <v>       0.66666669       0.16666667       0.08219577 </v>
    <v>       0.66666669       0.16666667       0.24658730 </v>
    <v>       0.66666669       0.16666667       0.41097882 </v>
    <v>       0.66666669       0.50000000       0.08219577 </v>
    <v>       0.66666669       0.50000000       0.24658730 </v>
    <v>       0.66666669       0.50000000       0.41097882 </v>
    <v>       0.66666669       0.83333331       0.08219577 </v>
    <v>       0.66666669       0.83333331       0.24658730 </v>
    <v>       0.66666669       0.83333331       0.41097882 </v>
    <v>       0.16666667       0.00000000       0.08219577 </v>
    <v>       0.16666667       0.00000000       0.24658730 </v>
    <v>       0.16666667       0.00000000       0.41097882 </v>
    <v>       0.16666667       0.33333334       0.08219577 </v>
    <v>       0.16666667       0.33333334       0.24658730 </v>
    <v>       0.16666667       0.33333334       0.41097882 </v>
    <v>       0.16666667       0.66666669       0.08219577 </v>
    <v>       0.16666667       0.66666669       0.24658730 </v>
    <v>       0.16666667       0.66666669       0.41097882 </v>
    <v>       0.50000000       0.00000000       0.08219577 </v>
    <v>       0.50000000       0.00000000       0.24658730 </v>
    <v>       0.50000000       0.00000000       0.41097882 </v>
    <v>       0.50000000       0.33333334       0.08219577 </v>
    <v>       0.50000000       0.33333334       0.24658730 </v>
    <v>       0.50000000       0.33333334       0.41097882 </v>
    <v>       0.50000000       0.66666669       0.08219577 </v>
    <v>       0.50000000       0.66666669       0.24658730 </v>
    <v>       0.50000000       0.66666669       0.41097882 </v>
    <v>       0.83333331       0.00000000       0.08219577 </v>
    <v>       0.83333331       0.00000000       0.24658730 </v>
    <v>       0.83333331       0.00000000       0.41097882 </v>
    <v>       0.83333331       0.33333334       0.08219577 </v>
    <v>       0.83333331       0.33333334       0.24658730 </v>
    <v>       0.83333331       0.33333334       0.41097882 </v>
    <v>       0.83333331       0.66666669       0.08219577 </v>
    <v>       0.83333331       0.66666669       0.24658730 </v>
    <v>       0.83333331       0.66666669       0.41097882 </v>
    <v>       0.16666667       0.16666667       0.00000000 </v>
    <v>       0.16666667       0.16666667       0.16439154 </v>
    <v>       0.16666667       0.16666667       0.32878307 </v>
    <v>       0.16666667       0.50000000       0.00000000 </v>
    <v>       0.16666667       0.50000000       0.16439154 </v>
    <v>       0.16666667       0.50000000       0.32878307 </v>
    <v>       0.16666667       0.83333331       0.00000000 </v>
    <v>       0.16666667       0.83333331       0.16439154 </v>
    <v>       0.16666667       0.83333331       0.32878307 </v>
    <v>       0.50000000       0.16666667       0.00000000 </v>
    <v>       0.50000000       0.16666667       0.16439154 </v>
    <v>       0.50000000       0.16666667       0.32878307 </v>
    <v>       0.50000000       0.50000000       0.00000000 </v>
    <v>       0.50000000       0.50000000       0.16439154 </v>
    <v>       0.50000000       0.50000000       0.32878307 </v>
    <v>       0.50000000       0.83333331       0.00000000 </v>
    <v>       0.50000000       0.83333331       0.16439154 </v>
    <v>       0.50000000       0.83333331       0.32878307 </v>
    <v>       0.83333331       0.16666667       0.00000000 </v>
    <v>       0.83333331       0.16666667       0.16439154 </v>
    <v>       0.83333331       0.16666667       0.32878307 </v>
    <v>       0.83333331       0.50000000       0.00000000 </v>
    <v>       0.83333331       0.50000000       0.16439154 </v>
    <v>       0.83333331       0.50000000       0.32878307 </v>
    <v>       0.83333331       0.83333331       0.00000000 </v>
    <v>       0.83333331       0.83333331       0.16439154 </v>
    <v>       0.83333331       0.83333331       0.32878307 </v>
    <v>       0.16666667       0.00000000       0.00000000 </v>
    <v>       0.16666667       0.00000000       0.16439154 </v>
    <v>       0.16666667       0.00000000       0.32878307 </v>
    <v>       0.16666667       0.33333334       0.00000000 </v>
    <v>       0.16666667       0.33333334       0.16439154 </v>
    <v>       0.16666667       0.33333334       0.32878307 </v>
    <v>       0.16666667       0.66666669       0.00000000 </v>
    <v>       0.16666667       0.66666669       0.16439154 </v>
    <v>       0.16666667       0.66666669       0.32878307 </v>
    <v>       0.50000000       0.00000000       0.00000000 </v>
    <v>       0.50000000       0.00000000       0.16439154 </v>
    <v>       0.50000000       0.00000000       0.32878307 </v>
    <v>       0.50000000       0.33333334       0.00000000 </v>
    <v>       0.50000000       0.33333334       0.16439154 </v>
    <v>       0.50000000       0.33333334       0.32878307 </v>
    <v>       0.50000000       0.66666669       0.00000000 </v>
    <v>       0.50000000       0.66666669       0.16439154 </v>
    <v>       0.50000000       0.66666669       0.32878307 </v>
    <v>       0.83333331       0.00000000       0.00000000 </v>
    <v>       0.83333331       0.00000000       0.16439154 </v>
    <v>       0.83333331       0.00000000       0.32878307 </v>
    <v>       0.83333331       0.33333334       0.00000000 </v>
    <v>       0.83333331       0.33333334       0.16439154 </v>
    <v>       0.83333331       0.33333334       0.32878307 </v>
    <v>       0.83333331       0.66666669       0.00000000 </v>
    <v>       0.83333331       0.66666669       0.16439154 </v>
    <v>       0.83333331       0.66666669       0.32878307 </v>
    <v>       0.16666667       0.16666667       0.08219577 </v>
    <v>       0.16666667       0.16666667       0.24658730 </v>
    <v>       0.16666667       0.16666667       0.41097882 </v>
    <v>       0.16666667       0.50000000       0.08219577 </v>
    <v>       0.16666667       0.50000000       0.24658730 </v>
    <v>       0.16666667       0.50000000       0.41097882 </v>
    <v>       0.16666667       0.83333331       0.08219577 </v>
    <v>       0.16666667       0.83333331       0.24658730 </v>
    <v>       0.16666667       0.83333331       0.41097882 </v>
    <v>       0.50000000       0.16666667       0.08219577 </v>
    <v>       0.50000000       0.16666667       0.24658730 </v>
    <v>       0.50000000       0.16666667       0.41097882 </v>
    <v>       0.50000000       0.50000000       0.08219577 </v>
    <v>       0.50000000       0.50000000       0.24658730 </v>
    <v>       0.50000000       0.50000000       0.41097882 </v>
    <v>       0.50000000       0.83333331       0.08219577 </v>
    <v>       0.50000000       0.83333331       0.24658730 </v>
    <v>       0.50000000       0.83333331       0.41097882 </v>
    <v>       0.83333331       0.16666667       0.08219577 </v>
    <v>       0.83333331       0.16666667       0.24658730 </v>
    <v>       0.83333331       0.16666667       0.41097882 </v>
    <v>       0.83333331       0.50000000       0.08219577 </v>
    <v>       0.83333331       0.50000000       0.24658730 </v>
    <v>       0.83333331       0.50000000       0.41097882 </v>
    <v>       0.83333331       0.83333331       0.08219577 </v>
    <v>       0.83333331       0.83333331       0.24658730 </v>
    <v>       0.83333331       0.83333331       0.41097882 </v>
    <v>       0.00000000       0.00000000       0.08219577 </v>
    <v>       0.00000000       0.00000000       0.24658730 </v>
    <v>       0.00000000       0.00000000       0.41097882 </v>
    <v>       0.00000000       0.33333334       0.08219577 </v>
    <v>       0.00000000       0.33333334       0.24658730 </v>
    <v>       0.00000000       0.33333334       0.41097882 </v>
    <v>       0.00000000       0.66666669       0.08219577 </v>
    <v>       0.00000000       0.66666669       0.24658730 </v>
    <v>       0.00000000       0.66666669       0.41097882 </v>
    <v>       0.33333334       0.00000000       0.08219577 </v>
    <v>       0.33333334       0.00000000       0.24658730 </v>
    <v>       0.33333334       0.00000000       0.41097882 </v>
    <v>       0.33333334       0.33333334       0.08219577 </v>
    <v>       0.33333334       0.33333334       0.24658730 </v>
    <v>       0.33333334       0.33333334       0.41097882 </v>
    <v>       0.33333334       0.66666669       0.08219577 </v>
    <v>       0.33333334       0.66666669       0.24658730 </v>
    <v>       0.33333334       0.66666669       0.41097882 </v>
    <v>       0.66666669       0.00000000       0.08219577 </v>
    <v>       0.66666669       0.00000000       0.24658730 </v>
    <v>       0.66666669       0.00000000       0.41097882 </v>
    <v>       0.66666669       0.33333334       0.08219577 </v>
    <v>       0.66666669       0.33333334       0.24658730 </v>
    <v>       0.66666669       0.33333334       0.41097882 </v>
    <v>       0.66666669       0.66666669       0.08219577 </v>
    <v>       0.66666669       0.66666669       0.24658730 </v>
    <v>       0.66666669       0.66666669       0.41097882 </v>
    <v>       0.00000000       0.16666667       0.00000000 </v>
    <v>       0.00000000       0.16666667       0.16439154 </v>
    <v>       0.00000000       0.16666667       0.32878307 </v>
    <v>       0.00000000       0.50000000       0.00000000 </v>
    <v>       0.00000000       0.50000000       0.16439154 </v>
    <v>       0.00000000       0.50000000       0.32878307 </v>
    <v>       0.00000000       0.83333331       0.00000000 </v>
    <v>       0.00000000       0.83333331       0.16439154 </v>
    <v>       0.00000000       0.83333331       0.32878307 </v>
    <v>       0.33333334       0.16666667       0.00000000 </v>
    <v>       0.33333334       0.16666667       0.16439154 </v>
    <v>       0.33333334       0.16666667       0.32878307 </v>
    <v>       0.33333334       0.50000000       0.00000000 </v>
    <v>       0.33333334       0.50000000       0.16439154 </v>
    <v>       0.33333334       0.50000000       0.32878307 </v>
    <v>       0.33333334       0.83333331       0.00000000 </v>
    <v>       0.33333334       0.83333331       0.16439154 </v>
    <v>       0.33333334       0.83333331       0.32878307 </v>
    <v>       0.66666669       0.16666667       0.00000000 </v>
    <v>       0.66666669       0.16666667       0.16439154 </v>
    <v>       0.66666669       0.16666667       0.32878307 </v>
    <v>       0.66666669       0.50000000       0.00000000 </v>
    <v>       0.66666669       0.50000000       0.16439154 </v>
    <v>       0.66666669       0.50000000       0.32878307 </v>
    <v>       0.66666669       0.83333331       0.00000000 </v>
    <v>       0.66666669       0.83333331       0.16439154 </v>
    <v>       0.66666669       0.83333331       0.32878307 </v>
   </varray>
  </structure>
  <varray name="forces" >
   <v>      -0.00000000      -0.00000000      -0.57014901 </v>
   <v>      -0.00000000      -0.00000000      -0.17644415 </v>
   <v>      -0.00000000      -0.00000000       0.33089438 </v>
   <v>      -0.00000000      -0.00000000      -0.57014901 </v>
   <v>       0.00000000      -0.00000000      -0.17644415 </v>
   <v>      -0.00000000      -0.00000000       0.33089438 </v>
   <v>      -0.00000000       0.00000000      -0.57014901 </v>
   <v>      -0.00000000       0.00000000      -0.17644415 </v>
   <v>      -0.00000000      -0.00000000       0.33089438 </v>
   <v>       0.00000000       0.00000000      -0.57014901 </v>
   <v>      -0.00000000       0.00000000      -0.17644415 </v>
   <v>       0.00000000       0.00000000       0.33089438 </v>
   <v>       0.00000000       0.00000000      -0.57014901 </v>
   <v>      -0.00000000      -0.00000000      -0.17644415 </v>
   <v>      -0.00000000      -0.00000000       0.33089438 </v>
   <v>      -0.00000000      -0.00000000      -0.57014901 </v>
   <v>       0.00000000      -0.00000000      -0.17644415 </v>
   <v>      -0.00000000       0.00000000       0.33089438 </v>
   <v>      -0.00000000      -0.00000000      -0.57014901 </v>
   <v>      -0.00000000       0.00000000      -0.17644415 </v>
   <v>      -0.00000000      -0.00000000       0.33089438 </v>
   <v>      -0.00000000       0.00000000      -0.57014901 </v>
   <v>      -0.00000000       0.00000000      -0.17644415 </v>
   <v>      -0.00000000      -0.00000000       0.33089438 </v>
   <v>      -0.00000000      -0.00000000      -0.57014901 </v>
   <v>       0.00000000      -0.00000000      -0.17644415 </v>
   <v>       0.00000000      -0.00000000       0.33089438 </v>
   <v>      -0.00000000      -0.00000000      -0.33089438 </v>
   <v>       0.00000000      -0.00000000       0.17644415 </v>
   <v>      -0.00000000      -0.00000000       0.57014901 </v>
   <v>      -0.00000000       0.00000000      -0.33089438 </v>
   <v>       0.00000000       0.00000000       0.17644415 </v>
   <v>      -0.00000000      -0.00000000       0.57014901 </v>
   <v>      -0.00000000       0.00000000      -0.33089438 </v>
   <v>      -0.00000000      -0.00000000       0.17644415 </v>
   <v>      -0.00000000      -0.00000000       0.57014901 </v>
   <v>      -0.00000000      -0.00000000      -0.33089438 </v>
   <v>      -0.00000000       0.00000000       0.17644415 </v>
   <v>       0.00000000       0.00000000       0.57014901 </v>
   <v>       0.00000000      -0.00000000      -0.33089438 </v>
   <v>       0.00000000      -0.00000000       0.17644415 </v>
   <v>      -0.00000000      -0.00000000       0.57014901 </v>
   <v>      -0.00000000      -0.00000000      -0.33089438 </v>
   <v>      -0.00000000      -0.00000000       0.17644415 </v>
   <v>      -0.00000000      -0.00000000       0.57014901 </v>
   <v>      -0.00000000       0.00000000      -0.33089438 </v>
   <v>      -0.00000000       0.00000000       0.17644415 </v>
   <v>      -0.00000000       0.00000000       0.57014901 </v>
   <v>       0.00000000      -0.00000000      -0.33089438 </v>
   <v>       0.00000000      -0.00000000       0.17644415 </v>
   <v>      -0.00000000       0.00000000       0.57014901 </v>
   <v>      -0.00000000      -0.00000000      -0.33089438 </v>
   <v>      -0.00000000      -0.00000000       0.17644415 </v>
   <v>      -0.00000000       0.00000000       0.57014901 </v>
   <v>      -0.00000000       0.00000000      -0.33089438 </v>
   <v>      -0.00000000      -0.00000000       0.17644415 </v>
   <v>      -0.00000000       0.00000000       0.57014901 </v>
   <v>       0.00000000      -0.00000000      -0.33089438 </v>
   <v>      -0.00000000      -0.00000000       0.17644415 </v>
   <v>       0.00000000      -0.00000000       0.57014901 </v>
   <v>       0.00000000       0.00000000      -0.33089438 </v>
   <v>       0.00000000      -0.00000000       0.17644415 </v>
   <v>      -0.00000000      -0.00000000       0.57014901 </v>
   <v>       0.00000000       0.00000000      -0.33089438 </v>
   <v>      -0.00000000      -0.00000000       0.17644415 </v>
   <v>      -0.00000000       0.00000000       0.57014901 </v>
   <v>      -0.00000000       0.00000000      -0.33089438 </v>
   <v>      -0.00000000      -0.00000000       0.17644415 </v>
   <v>       0.00000000       0.00000000       0.57014901 </v>
   <v>      -0.00000000      -0.00000000      -0.33089438 </v>
   <v>      -0.00000000       0.00000000       0.17644415 </v>
   <v>       0.00000000       0.00000000       0.57014901 </v>
   <v>      -0.00000000       0.00000000      -0.33089438 </v>
   <v>       0.00000000       0.00000000       0.17644415 </v>
   <v>      -0.00000000      -0.00000000       0.57014901 </v>
   <v>      -0.00000000       0.00000000      -0.33089438 </v>
   <v>       0.00000000       0.00000000       0.17644415 </v>
   <v>      -0.00000000      -0.00000000       0.57014901 </v>
   <v>       0.00000000      -0.00000000      -0.33089438 </v>
   <v>      -0.00000000       0.00000000       0.17644415 </v>
   <v>      -0.00000000      -0.00000000       0.57014901 </v>
   <v>       0.00000000      -0.00000000      -0.57014901 </v>
   <v>      -0.00000000      -0.00000000      -0.17644415 </v>
   <v>       0.00000000       0.00000000       0.33089438 </v>
   <v>      -0.00000000      -0.00000000      -0.57014901 </v>
   <v>      -0.00000000      -0.00000000      -0.17644415 </v>
   <v>      -0.00000000      -0.00000000       0.33089438 </v>
   <v>      -0.00000000       0.00000000      -0.57014901 </v>
   <v>      -0.00000000       0.00000000      -0.17644415 </v>
   <v>       0.00000000       0.00000000       0.33089438 </v>
   <v>      -0.00000000      -0.00000000      -0.57014901 </v>
   <v>       0.00000000      -0.00000000      -0.17644415 </v>
   <v>      -0.00000000       0.00000000       0.33089438 </v>
   <v>       0.00000000      -0.00000000      -0.57014901 </v>
   <v>      -0.00000000      -0.00000000      -0.17644415 </v>
   <v>      -0.00000000      -0.00000000       0.33089438 </v>
   <v>       0.00000000       0.00000000      -0.57014901 </v>
   <v>      -0.00000000      -0.00000000      -0.17644415 </v>
   <v>       0.00000000       0.00000000       0.33089438 </v>
   <v>      -0.00000000       0.00000000      -0.57014901 </v>
   <v>      -0.00000000      -0.00000000      -0.17644415 </v>
   <v>      -0.00000000       0.00000000       0.33089438 </v>
   <v>      -0.00000000      -0.00000000      -0.57014901 </v>
   <v>      -0.00000000      -0.00000000      -0.17644415 </v>
   <v>      -0.00000000      -0.00000000       0.33089438 </v>
   <v>      -0.00000000      -0.00000000      -0.57014901 </v>
   <v>      -0.00000000       0.00000000      -0.17644415 </v>
   <v>      -0.00000000      -0.00000000       0.33089438 </v>
   <v>      -0.00000000      -0.00000000       0.76127499 </v>
   <v>      -0.00000000      -0.00000000      -0.14564673 </v>
   <v>       0.00000000      -0.00000000      -0.91746395 </v>
   <v>       0.00000000       0.00000000       0.76127499 </v>
   <v>       0.00000000      -0.00000000      -0.14564673 </v>
   <v>      -0.00000000      -0.00000000      -0.91746395 </v>
   <v>       0.00000000      -0.00000000       0.76127499 </v>
   <v>      -0.00000000       0.00000000      -0.14564673 </v>
   <v>      -0.00000000       0.00000000      -0.91746395 </v>
   <v>      -0.00000000      -0.00000000       0.76127499 </v>
   <v>       0.00000000       0.00000000      -0.14564673 </v>
   <v>      -0.00000000       0.00000000      -0.91746395 </v>
   <v>      -0.00000000       0.00000000       0.76127499 </v>
   <v>       0.00000000      -0.00000000      -0.14564673 </v>
   <v>       0.00000000      -0.00000000      -0.91746395 </v>
   <v>       0.00000000      -0.00000000       0.76127499 </v>
   <v>       0.00000000      -0.00000000      -0.14564673 </v>
   <v>      -0.00000000       0.00000000      -0.91746395 </v>
   <v>       0.00000000       0.00000000       0.76127499 </v>
   <v>      -0.00000000      -0.00000000      -0.14564673 </v>
   <v>       0.00000000       0.00000000      -0.91746395 </v>
   <v>       0.00000000       0.00000000       0.76127499 </v>
   <v>      -0.00000000      -0.00000000      -0.14564673 </v>
   <v>       0.00000000       0.00000000      -0.91746395 </v>
   <v>       0.00000000      -0.00000000       0.76127499 </v>
   <v>       0.00000000       0.00000000      -0.14564673 </v>
   <v>       0.00000000       0.00000000      -0.91746395 </v>
   <v>       0.00000000       0.00000000       0.91746395 </v>
   <v>       0.00000000       0.00000000       0.14564673 </v>
   <v>       0.00000000       0.00000000      -0.76127499 </v>
   <v>      -0.00000000       0.00000000       0.91746395 </v>
[...]
       <r>    -3.3385    46.4537   853.3271 </r>
       <r>    -3.2405    20.0851   855.2941 </r>
       <r>    -3.1426    18.0840   857.0651 </r>
       <r>    -3.0447    26.5343   859.6637 </r>
       <r>    -2.9467    14.2681   861.0611 </r>
       <r>    -2.8488    16.5952   862.6863 </r>
       <r>    -2.7509     3.2149   863.0012 </r>
       <r>    -2.6529     4.1393   863.4065 </r>
       <r>    -2.5550     6.0021   863.9944 </r>
       <r>    -2.4571     0.1614   864.0102 </r>
       <r>    -2.3591     3.8025   864.3826 </r>
       <r>    -2.2612     1.2065   864.5007 </r>
       <r>    -2.1633     2.2095   864.7171 </r>
       <r>    -2.0653     3.3837   865.0485 </r>
       <r>    -1.9674    16.3742   866.6521 </r>
       <r>    -1.8695    21.5027   868.7579 </r>
       <r>    -1.7715    78.1715   876.4136 </r>
       <r>    -1.6736    95.7995   885.7956 </r>
       <r>    -1.5757    85.9327   894.2114 </r>
       <r>    -1.4777    71.5973   901.2232 </r>
       <r>    -1.3798   106.1477   911.6187 </r>
       <r>    -1.2819   301.1409   941.1106 </r>
       <r>    -1.1839   269.9688   967.5498 </r>
       <r>    -1.0860   285.5798   995.5178 </r>
       <r>    -0.9880   296.6569  1024.5707 </r>
       <r>    -0.8901   555.6029  1078.9832 </r>
       <r>    -0.7922   602.0752  1137.9469 </r>
       <r>    -0.6942   533.1940  1190.1648 </r>
       <r>    -0.5963   507.1609  1239.8332 </r>
       <r>    -0.4984   530.1673  1291.7546 </r>
       <r>    -0.4004   848.0875  1374.8114 </r>
       <r>    -0.3025  1076.5756  1480.2449 </r>
       <r>    -0.2046   780.0397  1556.6374 </r>
       <r>    -0.1066   550.5298  1610.5531 </r>
       <r>    -0.0087   360.9163  1645.8991 </r>
       <r>     0.0892   261.3582  1671.4950 </r>
       <r>     0.1872   285.6738  1699.4722 </r>
       <r>     0.2851   329.4113  1731.7329 </r>
       <r>     0.3830   183.1548  1749.6700 </r>
       <r>     0.4810   171.3801  1766.4539 </r>
       <r>     0.5789   184.5630  1784.5289 </r>
       <r>     0.6768   217.7344  1805.8526 </r>
       <r>     0.7748   185.3969  1824.0093 </r>
       <r>     0.8727   138.2978  1837.5533 </r>
       <r>     0.9706   111.5475  1848.4777 </r>
       <r>     1.0686   152.6559  1863.4279 </r>
       <r>     1.1665   271.1390  1889.9816 </r>
       <r>     1.2644   140.8278  1903.7735 </r>
       <r>     1.3624   121.8883  1915.7105 </r>
       <r>     1.4603   106.1010  1926.1014 </r>
       <r>     1.5582   146.7493  1940.4732 </r>
       <r>     1.6562    33.5686  1943.7607 </r>
       <r>     1.7541     4.7337  1944.2243 </r>
       <r>     1.8520     2.8955  1944.5079 </r>
       <r>     1.9500     3.8111  1944.8811 </r>
       <r>     2.0479     1.2128  1944.9999 </r>
       <r>     2.1458     0.0014  1945.0000 </r>
       <r>     2.2438     1.1443  1945.1121 </r>
       <r>     2.3417    20.1039  1947.0809 </r>
       <r>     2.4396    18.8164  1948.9237 </r>
       <r>     2.5376     0.7798  1949.0001 </r>
       <r>     2.6355     2.7059  1949.2651 </r>
       <r>     2.7334    31.2003  1952.3206 </r>
       <r>     2.8314     6.9282  1952.9992 </r>
       <r>     2.9293     0.0086  1953.0000 </r>
       <r>     3.0273     0.0000  1953.0000 </r>
       <r>     3.1252     0.0000  1953.0000 </r>
       <r>     3.2231     0.0000  1953.0000 </r>
       <r>     3.3211     0.1025  1953.0100 </r>
       <r>     3.4190    20.0377  1954.9724 </r>
       <r>     3.5169    25.8498  1957.5040 </r>
       <r>     3.6149    52.9982  1962.6943 </r>
       <r>     3.7128    30.1640  1965.6484 </r>
       <r>     3.8107    17.0906  1967.3222 </r>
       <r>     3.9087     1.8216  1967.5006 </r>
       <r>     4.0066     5.1961  1968.0094 </r>
       <r>     4.1045    15.7707  1969.5539 </r>
       <r>     4.2025    31.1198  1972.6016 </r>
       <r>     4.3004     9.1645  1973.4991 </r>
       <r>     4.3983     0.0089  1973.5000 </r>
       <r>     4.4963     2.0968  1973.7054 </r>
       <r>     4.5942    41.3310  1977.7531 </r>
       <r>     4.6921    48.8608  1982.5382 </r>
       <r>     4.7901    67.9085  1989.1888 </r>
       <r>     4.8880    34.7534  1992.5923 </r>
       <r>     4.9859    39.0585  1996.4175 </r>
       <r>     5.0839    83.4421  2004.5893 </r>
       <r>     5.1818    39.7594  2008.4831 </r>
       <r>     5.2797     0.1723  2008.5000 </r>
       <r>     5.3777     0.5300  2008.5519 </r>
       <r>     5.4756    16.9522  2010.2121 </r>
       <r>     5.5735    48.1157  2014.9243 </r>
       <r>     5.6715    70.2621  2021.8053 </r>
       <r>     5.7694   117.5912  2033.3215 </r>
       <r>     5.8673    97.0113  2042.8223 </r>
       <r>     5.9653    45.5549  2047.2836 </r>
       <r>     6.0632    49.7258  2052.1535 </r>
       <r>     6.1611    63.8856  2058.4101 </r>
       <r>     6.2591    37.5388  2062.0864 </r>
       <r>     6.3570    43.7042  2066.3665 </r>
       <r>     6.4549    16.6347  2067.9956 </r>
       <r>     6.5529     6.7245  2068.6542 </r>
       <r>     6.6508    32.6614  2071.8529 </r>
       <r>     6.7487     1.5023  2072.0000 </r>
       <r>     6.8467     0.0001  2072.0000 </r>
       <r>     6.9446     0.0000  2072.0000 </r>
       <r>     7.0426     0.0000  2072.0000 </r>
       <r>     7.1405     0.0000  2072.0000 </r>
       <r>     7.2384     0.0000  2072.0000 </r>
       <r>     7.3364     0.0000  2072.0000 </r>
       <r>     7.4343     0.0000  2072.0000 </r>
       <r>     7.5322     0.0000  2072.0000 </r>
       <r>     7.6302     0.0000  2072.0000 </r>
       <r>     7.7281     0.0000  2072.0000 </r>
       <r>     7.8260     0.0000  2072.0000 </r>
       <r>     7.9240     0.0000  2072.0000 </r>
      </set>
     </set>
    </array>
   </total>
  </dos>
 </calculation>
 <structure name="finalpos" >
  <crystal>
   <varray name="basis" >
    <v>      12.64985847       0.00000000       0.00000000 </v>
    <v>       0.00000000      12.64985847       0.00000000 </v>
    <v>       0.00000000       0.00000000      25.64985847 </v>
   </varray>
   <i name="volume">   4104.46263665 </i>
   <varray name="rec_basis" >
    <v>       0.07905227       0.00000000       0.00000000 </v>
    <v>       0.00000000       0.07905227       0.00000000 </v>
    <v>       0.00000000       0.00000000       0.03898657 </v>
   </varray>
  </crystal>
  <varray name="positions" >
   <v>      -0.00000000      -0.00000000       0.00400122 </v>
   <v>      -0.00000000      -0.00000000       0.16642810 </v>
   <v>      -0.00000000      -0.00000000       0.32555549 </v>
   <v>      -0.00000000       0.33333334       0.00400122 </v>
   <v>       0.00000000       0.33333334       0.16642810 </v>
   <v>       0.00000000       0.33333334       0.32555549 </v>
   <v>      -0.00000000       0.66666669       0.00400122 </v>
   <v>      -0.00000000       0.66666669       0.16642810 </v>
   <v>       0.00000000       0.66666669       0.32555549 </v>
   <v>       0.33333334       0.00000000       0.00400122 </v>
   <v>       0.33333334      -0.00000000       0.16642810 </v>
   <v>       0.33333334      -0.00000000       0.32555549 </v>
   <v>       0.33333334       0.33333334       0.00400122 </v>
   <v>       0.33333334       0.33333334       0.16642810 </v>
   <v>       0.33333334       0.33333334       0.32555549 </v>
   <v>       0.33333334       0.66666669       0.00400122 </v>
   <v>       0.33333334       0.66666669       0.16642810 </v>
   <v>       0.33333334       0.66666669       0.32555549 </v>
   <v>       0.66666669       0.00000000       0.00400122 </v>
   <v>       0.66666669      -0.00000000       0.16642810 </v>
   <v>       0.66666669       0.00000000       0.32555549 </v>
   <v>       0.66666669       0.33333334       0.00400122 </v>
   <v>       0.66666669       0.33333334       0.16642810 </v>
   <v>       0.66666669       0.33333334       0.32555549 </v>
   <v>       0.66666669       0.66666669       0.00400122 </v>
   <v>       0.66666669       0.66666669       0.16642810 </v>
   <v>       0.66666669       0.66666669       0.32555549 </v>
   <v>      -0.00000000       0.16666667       0.08542335 </v>
   <v>      -0.00000000       0.16666667       0.24455073 </v>
   <v>      -0.00000000       0.16666667       0.40697759 </v>
   <v>       0.00000000       0.50000000       0.08542335 </v>
   <v>       0.00000000       0.50000000       0.24455073 </v>
   <v>      -0.00000000       0.50000000       0.40697759 </v>
   <v>      -0.00000000       0.83333331       0.08542335 </v>
   <v>      -0.00000000       0.83333331       0.24455073 </v>
   <v>      -0.00000000       0.83333331       0.40697759 </v>
   <v>       0.33333334       0.16666667       0.08542335 </v>
   <v>       0.33333334       0.16666667       0.24455073 </v>
   <v>       0.33333334       0.16666667       0.40697759 </v>
   <v>       0.33333334       0.50000000       0.08542335 </v>
   <v>       0.33333334       0.50000000       0.24455073 </v>
   <v>       0.33333334       0.50000000       0.40697759 </v>
   <v>       0.33333334       0.83333331       0.08542335 </v>
   <v>       0.33333334       0.83333331       0.24455073 </v>
   <v>       0.33333334       0.83333331       0.40697759 </v>
   <v>       0.66666669       0.16666667       0.08542335 </v>
   <v>       0.66666669       0.16666667       0.24455073 </v>
   <v>       0.66666669       0.16666667       0.40697759 </v>
   <v>       0.66666669       0.50000000       0.08542335 </v>
   <v>       0.66666669       0.50000000       0.24455073 </v>
   <v>       0.66666669       0.50000000       0.40697759 </v>
   <v>       0.66666669       0.83333331       0.08542335 </v>
   <v>       0.66666669       0.83333331       0.24455073 </v>
   <v>       0.66666669       0.83333331       0.40697759 </v>
   <v>       0.16666667      -0.00000000       0.08542335 </v>
   <v>       0.16666667       0.00000000       0.24455073 </v>
   <v>       0.16666667       0.00000000       0.40697759 </v>
   <v>       0.16666667       0.33333334       0.08542335 </v>
   <v>       0.16666667       0.33333334       0.24455073 </v>
   <v>       0.16666667       0.33333334       0.40697759 </v>
   <v>       0.16666667       0.66666669       0.08542335 </v>
   <v>       0.16666667       0.66666669       0.24455073 </v>
   <v>       0.16666667       0.66666669       0.40697759 </v>
   <v>       0.50000000       0.00000000       0.08542335 </v>
   <v>       0.50000000       0.00000000       0.24455073 </v>
   <v>       0.50000000      -0.00000000       0.40697759 </v>
   <v>       0.50000000       0.33333334       0.08542335 </v>
   <v>       0.50000000       0.33333334       0.24455073 </v>
   <v>       0.50000000       0.33333334       0.40697759 </v>
   <v>       0.50000000       0.66666669       0.08542335 </v>
   <v>       0.50000000       0.66666669       0.24455073 </v>
   <v>       0.50000000       0.66666669       0.40697759 </v>
   <v>       0.83333331       0.00000000       0.08542335 </v>
   <v>       0.83333331       0.00000000       0.24455073 </v>
   <v>       0.83333331       0.00000000       0.40697759 </v>
   <v>       0.83333331       0.33333334       0.08542335 </v>
   <v>       0.83333331       0.33333334       0.24455073 </v>
   <v>       0.83333331       0.33333334       0.40697759 </v>
   <v>       0.83333331       0.66666669       0.08542335 </v>
   <v>       0.83333331       0.66666669       0.24455073 </v>
   <v>       0.83333331       0.66666669       0.40697759 </v>
   <v>       0.16666667       0.16666667       0.00400122 </v>
   <v>       0.16666667       0.16666667       0.16642810 </v>
   <v>       0.16666667       0.16666667       0.32555549 </v>
   <v>       0.16666667       0.50000000       0.00400122 </v>
   <v>       0.16666667       0.50000000       0.16642810 </v>
   <v>       0.16666667       0.50000000       0.32555549 </v>
   <v>       0.16666667       0.83333331       0.00400122 </v>
   <v>       0.16666667       0.83333331       0.16642810 </v>
   <v>       0.16666667       0.83333331       0.32555549 </v>
   <v>       0.50000000       0.16666667       0.00400122 </v>
   <v>       0.50000000       0.16666667       0.16642810 </v>
   <v>       0.50000000       0.16666667       0.32555549 </v>
   <v>       0.50000000       0.50000000       0.00400122 </v>
   <v>       0.50000000       0.50000000       0.16642810 </v>
   <v>       0.50000000       0.50000000       0.32555549 </v>
   <v>       0.50000000       0.83333331       0.00400122 </v>
   <v>       0.50000000       0.83333331       0.16642810 </v>
   <v>       0.50000000       0.83333331       0.32555549 </v>
   <v>       0.83333331       0.16666667       0.00400122 </v>
   <v>       0.83333331       0.16666667       0.16642810 </v>
   <v>       0.83333331       0.16666667       0.32555549 </v>
   <v>       0.83333331       0.50000000       0.00400122 </v>
   <v>       0.83333331       0.50000000       0.16642810 </v>
   <v>       0.83333331       0.50000000       0.32555549 </v>
   <v>       0.83333331       0.83333331       0.00400122 </v>
   <v>       0.83333331       0.83333331       0.16642810 </v>
   <v>       0.83333331       0.83333331       0.32555549 </v>
   <v>       0.16666667       0.00000000       0.00977452 </v>
   <v>       0.16666667      -0.00000000       0.16572339 </v>
   <v>       0.16666667      -0.00000000       0.31982964 </v>
   <v>       0.16666667       0.33333334       0.00977452 </v>
   <v>       0.16666667       0.33333334       0.16572339 </v>
   <v>       0.16666667       0.33333334       0.31982964 </v>
   <v>       0.16666667       0.66666669       0.00977452 </v>
   <v>       0.16666667       0.66666669       0.16572339 </v>
   <v>       0.16666667       0.66666669       0.31982964 </v>
   <v>       0.50000000       0.00000000       0.00977452 </v>
   <v>       0.50000000      -0.00000000       0.16572339 </v>
   <v>       0.50000000      -0.00000000       0.31982964 </v>
   <v>       0.50000000       0.33333334       0.00977452 </v>
   <v>       0.50000000       0.33333334       0.16572339 </v>
   <v>       0.50000000       0.33333334       0.31982964 </v>
   <v>       0.50000000       0.66666669       0.00977452 </v>
   <v>       0.50000000       0.66666669       0.16572339 </v>
   <v>       0.50000000       0.66666669       0.31982964 </v>
   <v>       0.83333331      -0.00000000       0.00977452 </v>
   <v>       0.83333331      -0.00000000       0.16572339 </v>
   <v>       0.83333331       0.00000000       0.31982964 </v>
   <v>       0.83333331       0.33333334       0.00977452 </v>
   <v>       0.83333331       0.33333334       0.16572339 </v>
   <v>       0.83333331       0.33333334       0.31982964 </v>
   <v>       0.83333331       0.66666669       0.00977452 </v>
   <v>       0.83333331       0.66666669       0.16572339 </v>
   <v>       0.83333331       0.66666669       0.31982964 </v>
   <v>       0.16666667       0.16666667       0.09114920 </v>
   <v>       0.16666667       0.16666667       0.24525544 </v>
   <v>       0.16666667       0.16666667       0.40120430 </v>
   <v>       0.16666667       0.50000000       0.09114920 </v>
   <v>       0.16666667       0.50000000       0.24525544 </v>
   <v>       0.16666667       0.50000000       0.40120430 </v>
   <v>       0.16666667       0.83333331       0.09114920 </v>
   <v>       0.16666667       0.83333331       0.24525544 </v>
   <v>       0.16666667       0.83333331       0.40120430 </v>
   <v>       0.50000000       0.16666667       0.09114920 </v>
   <v>       0.50000000       0.16666667       0.24525544 </v>
   <v>       0.50000000       0.16666667       0.40120430 </v>
   <v>       0.50000000       0.50000000       0.09114920 </v>
   <v>       0.50000000       0.50000000       0.24525544 </v>
   <v>       0.50000000       0.50000000       0.40120430 </v>
   <v>       0.50000000       0.83333331       0.09114920 </v>
   <v>       0.50000000       0.83333331       0.24525544 </v>
   <v>       0.50000000       0.83333331       0.40120430 </v>
   <v>       0.83333331       0.16666667       0.09114920 </v>
   <v>       0.83333331       0.16666667       0.24525544 </v>
   <v>       0.83333331       0.16666667       0.40120430 </v>
   <v>       0.83333331       0.50000000       0.09114920 </v>
   <v>       0.83333331       0.50000000       0.24525544 </v>
   <v>       0.83333331       0.50000000       0.40120430 </v>
   <v>       0.83333331       0.83333331       0.09114920 </v>
   <v>       0.83333331       0.83333331       0.24525544 </v>
   <v>       0.83333331       0.83333331       0.40120430 </v>
   <v>       0.00000000       0.00000000       0.09114920 </v>
   <v>       0.00000000      -0.00000000       0.24525544 </v>
   <v>      -0.00000000       0.00000000       0.40120430 </v>
   <v>       0.00000000       0.33333334       0.09114920 </v>
   <v>       0.00000000       0.33333334       0.24525544 </v>
   <v>      -0.00000000       0.33333334       0.40120430 </v>
   <v>       0.00000000       0.66666669       0.09114920 </v>
   <v>       0.00000000       0.66666669       0.24525544 </v>
   <v>      -0.00000000       0.66666669       0.40120430 </v>
   <v>       0.33333334      -0.00000000       0.09114920 </v>
   <v>       0.33333334       0.00000000       0.24525544 </v>
   <v>       0.33333334      -0.00000000       0.40120430 </v>
   <v>       0.33333334       0.33333334       0.09114920 </v>
   <v>       0.33333334       0.33333334       0.24525544 </v>
   <v>       0.33333334       0.33333334       0.40120430 </v>
   <v>       0.33333334       0.66666669       0.09114920 </v>
   <v>       0.33333334       0.66666669       0.24525544 </v>
   <v>       0.33333334       0.66666669       0.40120430 </v>
   <v>       0.66666669       0.00000000       0.09114920 </v>
   <v>       0.66666669      -0.00000000       0.24525544 </v>
   <v>       0.66666669       0.00000000       0.40120430 </v>
   <v>       0.66666669       0.33333334       0.09114920 </v>
   <v>       0.66666669       0.33333334       0.24525544 </v>
   <v>       0.66666669       0.33333334       0.40120430 </v>
   <v>       0.66666669       0.66666669       0.09114920 </v>
   <v>       0.66666669       0.66666669       0.24525544 </v>
   <v>       0.66666669       0.66666669       0.40120430 </v>
   <v>      -0.00000000       0.16666667       0.00977452 </v>
   <v>       0.00000000       0.16666667       0.16572339 </v>
   <v>       0.00000000       0.16666667       0.31982964 </v>
   <v>      -0.00000000       0.50000000       0.00977452 </v>
   <v>       0.00000000       0.50000000       0.16572339 </v>
   <v>       0.00000000       0.50000000       0.31982964 </v>
   <v>      -0.00000000       0.83333331       0.00977452 </v>
   <v>       0.00000000       0.83333331       0.16572339 </v>
   <v>       0.00000000       0.83333331       0.31982964 </v>
   <v>       0.33333334       0.16666667       0.00977452 </v>
   <v>       0.33333334       0.16666667       0.16572339 </v>
   <v>       0.33333334       0.16666667       0.31982964 </v>
   <v>       0.33333334       0.50000000       0.00977452 </v>
   <v>       0.33333334       0.50000000       0.16572339 </v>
   <v>       0.33333334       0.50000000       0.31982964 </v>
   <v>       0.33333334       0.83333331       0.00977452 </v>
   <v>       0.33333334       0.83333331       0.16572339 </v>
   <v>       0.33333334       0.83333331       0.31982964 </v>
   <v>       0.66666669       0.16666667       0.00977452 </v>
   <v>       0.66666669       0.16666667       0.16572339 </v>
   <v>       0.66666669       0.16666667       0.31982964 </v>
   <v>       0.66666669       0.50000000       0.00977452 </v>
   <v>       0.66666669       0.50000000       0.16572339 </v>
   <v>       0.66666669       0.50000000       0.31982964 </v>
   <v>       0.66666669       0.83333331       0.00977452 </v>
   <v>       0.66666669       0.83333331       0.16572339 </v>
   <v>       0.66666669       0.83333331       0.31982964 </v>
  </varray>
 </structure>
</modeling>
