<?xml version="1.0" encoding="ISO-8859-1"?>
<modeling>
 <generator>
  <i name="program" type="string">vasp </i>
  <i name="version" type="string">6.2.1  </i>
  <i name="subversion" type="string">16May21 (build May 12 2022 08:28:04) complex                          parallel </i>
  <i name="platform" type="string">LinuxPGI </i>
  <i name="date" type="string">2022 08 03 </i>
  <i name="time" type="string">15:04:04 </i>
 </generator>
 <incar>
  <i type="string" name="SYSTEM">NiAl</i>
  <i type="int" name="ISTART">     0</i>
  <i type="int" name="NELMIN">     6</i>
  <i type="int" name="IBRION">     2</i>
  <i name="EDIFF">      0.00000500</i>
  <i type="int" name="NSW">    20</i>
  <i type="int" name="ISIF">     0</i>
  <i name="ENCUT">    360.00000000</i>
  <i name="POTIM">      0.20000000</i>
  <i type="string" name="LREAL">Auto</i>
  <i type="logical" name="LPLANE"> T  </i>
  <i type="int" name="ISMEAR">     0</i>
  <i name="SIGMA">      0.05000000</i>
  <i type="logical" name="LWAVE"> F  </i>
  <i type="logical" name="LCHARG"> F  </i>
  <i type="int" name="IVDW">    12</i>
 </incar>
 <primitive_cell>
  <structure name="primitive_cell" >
   <crystal>
    <varray name="basis" >
     <v>      -1.05415002      -1.82584140       0.00000000 </v>
     <v>       2.10830005       0.00000000       0.00000000 </v>
     <v>       0.00000000       0.00000000      28.54150009 </v>
    </varray>
    <i name="volume">    109.86826464 </i>
    <varray name="rec_basis" >
     <v>       0.00000000      -0.54769270       0.00000000 </v>
     <v>       0.47431579      -0.27384635       0.00000000 </v>
     <v>      -0.00000000       0.00000000       0.03503670 </v>
    </varray>
   </crystal>
   <varray name="positions" >
    <v>       0.00000000       0.00000000       0.00000000 </v>
    <v>       0.00000000       0.00000000       0.07386788 </v>
    <v>       0.00000000       0.00000000       0.14773576 </v>
    <v>       0.00000000       0.00000000       0.22160364 </v>
    <v>       0.00000000       0.00000000       0.29547151 </v>
    <v>       0.50000000       0.50000000       0.03693394 </v>
    <v>       0.50000000       0.50000000       0.11080182 </v>
    <v>       0.50000000       0.50000000       0.18466969 </v>
    <v>       0.50000000       0.50000000       0.25853757 </v>
    <v>       0.50000000       0.50000000       0.33240544 </v>
   </varray>
  </structure>
  <varray name="primitive_index" >
   <v type="int" >        1 </v>
   <v type="int" >        2 </v>
   <v type="int" >        3 </v>
   <v type="int" >        4 </v>
   <v type="int" >        5 </v>
   <v type="int" >      126 </v>
   <v type="int" >      127 </v>
   <v type="int" >      128 </v>
   <v type="int" >      129 </v>
   <v type="int" >      130 </v>
  </varray>
 </primitive_cell>
 <kpoints>
  <generation param="Gamma">
   <v type="int" name="divisions">       2        2        2 </v>
   <v name="usershift">      0.00000000       0.00000000       0.00000000 </v>
   <v name="genvec1">      0.50000000      -0.00000000       0.00000000 </v>
   <v name="genvec2">      0.00000000       0.50000000       0.00000000 </v>
   <v name="genvec3">      0.00000000       0.00000000       0.50000000 </v>
   <v name="shift">      0.00000000       0.00000000       0.00000000 </v>
  </generation>
  <varray name="kpointlist" >
   <v>       0.00000000       0.00000000       0.00000000 </v>
   <v>       0.50000000       0.00000000       0.00000000 </v>
   <v>       0.50000000       0.50000000       0.00000000 </v>
   <v>       0.00000000       0.00000000       0.50000000 </v>
   <v>       0.50000000       0.00000000       0.50000000 </v>
   <v>       0.50000000       0.50000000       0.50000000 </v>
  </varray>
  <varray name="weights" >
   <v>       0.12500000 </v>
   <v>       0.25000000 </v>
   <v>       0.12500000 </v>
   <v>       0.12500000 </v>
   <v>       0.25000000 </v>
   <v>       0.12500000 </v>
  </varray>
 </kpoints>
 <parameters>
  <separator name="general" >
   <i type="string" name="SYSTEM">NiAl</i>
   <i type="logical" name="LCOMPAT"> F  </i>
  </separator>
  <separator name="electronic" >
   <i type="string" name="PREC">normal</i>
   <i name="ENMAX">    360.00000000</i>
   <i name="ENAUG">   1139.60900000</i>
   <i name="EDIFF">      0.00000500</i>
   <i type="int" name="IALGO">    38</i>
   <i type="int" name="IWAVPR">    11</i>
   <i type="int" name="NBANDS">  1200</i>
   <i type="int" name="NBANDSLOW">    -1</i>
   <i type="int" name="NBANDSHIGH">    -1</i>
   <i name="NELECT">   2000.00000000</i>
   <i type="int" name="TURBO">     0</i>
   <i type="int" name="IRESTART">     0</i>
   <i type="int" name="NREBOOT">     0</i>
   <i type="int" name="NMIN">     0</i>
   <i name="EREF">      0.00000000</i>
   <separator name="electronic smearing" >
    <i type="int" name="ISMEAR">     0</i>
    <i name="SIGMA">      0.05000000</i>
    <i name="KSPACING">      0.50000000</i>
    <i type="logical" name="KGAMMA"> T  </i>
    <i type="logical" name="KBLOWUP"> T  </i>
   </separator>
   <separator name="electronic projectors" >
    <i type="logical" name="LREAL"> T  </i>
    <v name="ROPT">     -0.00050000     -0.00050000</v>
    <i type="int" name="LMAXPAW">  -100</i>
    <i type="int" name="LMAXMIX">     2</i>
    <i type="logical" name="NLSPLINE"> F  </i>
   </separator>
   <separator name="electronic startup" >
    <i type="int" name="ISTART">     0</i>
    <i type="int" name="ICHARG">     2</i>
    <i type="int" name="INIWAV">     1</i>
   </separator>
   <separator name="electronic spin" >
    <i type="int" name="ISPIN">     1</i>
    <i type="logical" name="LNONCOLLINEAR"> F  </i>
    <v name="MAGMOM">      1.00000000      1.00000000      1.00000000      1.00000000      1.00000000      1.00000000      1.00000000      1.00000000      1.00000000      1.00000000      1.00000000      1.00000000      1.00000000      1.00000000      1.00000000      1.00000000      1.00000000      1.00000000      1.00000000      1.00000000
      1.00000000      1.00000000      1.00000000      1.00000000      1.00000000      1.00000000      1.00000000      1.00000000      1.00000000      1.00000000      1.00000000      1.00000000      1.00000000      1.00000000      1.00000000      1.00000000      1.00000000      1.00000000      1.00000000      1.00000000
      1.00000000      1.00000000      1.00000000      1.00000000      1.00000000      1.00000000      1.00000000      1.00000000      1.00000000      1.00000000      1.00000000      1.00000000      1.00000000      1.00000000      1.00000000      1.00000000      1.00000000      1.00000000      1.00000000      1.00000000
      1.00000000      1.00000000      1.00000000      1.00000000      1.00000000      1.00000000      1.00000000      1.00000000      1.00000000      1.00000000      1.00000000      1.00000000      1.00000000      1.00000000      1.00000000      1.00000000      1.00000000      1.00000000      1.00000000      1.00000000
      1.00000000      1.00000000      1.00000000      1.00000000      1.00000000      1.00000000      1.00000000      1.00000000      1.00000000      1.00000000      1.00000000      1.00000000      1.00000000      1.00000000      1.00000000      1.00000000      1.00000000      1.00000000      1.00000000      1.00000000
      1.00000000      1.00000000      1.00000000      1.00000000      1.00000000      1.00000000      1.00000000      1.00000000      1.00000000      1.00000000      1.00000000      1.00000000      1.00000000      1.00000000      1.00000000      1.00000000      1.00000000      1.00000000      1.00000000      1.00000000
      1.00000000      1.00000000      1.00000000      1.00000000      1.00000000      1.00000000      1.00000000      1.00000000      1.00000000      1.00000000      1.00000000      1.00000000      1.00000000      1.00000000      1.00000000      1.00000000      1.00000000      1.00000000      1.00000000      1.00000000
      1.00000000      1.00000000      1.00000000      1.00000000      1.00000000      1.00000000      1.00000000      1.00000000      1.00000000      1.00000000      1.00000000      1.00000000      1.00000000      1.00000000      1.00000000      1.00000000      1.00000000      1.00000000      1.00000000      1.00000000
      1.00000000      1.00000000      1.00000000      1.00000000      1.00000000      1.00000000      1.00000000      1.00000000      1.00000000      1.00000000      1.00000000      1.00000000      1.00000000      1.00000000      1.00000000      1.00000000      1.00000000      1.00000000      1.00000000      1.00000000
      1.00000000      1.00000000      1.00000000      1.00000000      1.00000000      1.00000000      1.00000000      1.00000000      1.00000000      1.00000000      1.00000000      1.00000000      1.00000000      1.00000000      1.00000000      1.00000000      1.00000000      1.00000000      1.00000000      1.00000000
      1.00000000      1.00000000      1.00000000      1.00000000      1.00000000      1.00000000      1.00000000      1.00000000      1.00000000      1.00000000      1.00000000      1.00000000      1.00000000      1.00000000      1.00000000      1.00000000      1.00000000      1.00000000      1.00000000      1.00000000
      1.00000000      1.00000000      1.00000000      1.00000000      1.00000000      1.00000000      1.00000000      1.00000000      1.00000000      1.00000000      1.00000000      1.00000000      1.00000000      1.00000000      1.00000000      1.00000000      1.00000000      1.00000000      1.00000000      1.00000000
      1.00000000      1.00000000      1.00000000      1.00000000      1.00000000      1.00000000      1.00000000      1.00000000      1.00000000      1.00000000</v>
    <i name="NUPDOWN">     -1.00000000</i>
    <i type="logical" name="LSORBIT"> F  </i>
    <v name="SAXIS">      0.00000000      0.00000000      1.00000000</v>
    <i type="logical" name="LSPIRAL"> F  </i>
    <v name="QSPIRAL">      0.00000000      0.00000000      0.00000000</v>
    <i type="logical" name="LZEROZ"> F  </i>
   </separator>
   <separator name="electronic exchange-correlation" >
    <i type="logical" name="LASPH"> F  </i>
    <i type="logical" name="LMETAGGA"> F  </i>
   </separator>
   <separator name="electronic convergence" >
    <i type="int" name="NELM">    60</i>
    <i type="int" name="NELMDL">    -5</i>
    <i type="int" name="NELMIN">     6</i>
    <i name="ENINI">    360.00000000</i>
    <separator name="electronic convergence detail" >
     <i type="logical" name="LDIAG"> T  </i>
     <i type="logical" name="LSUBROT"> F  </i>
     <i name="WEIMIN">      0.00100000</i>
     <i name="EBREAK">      0.00000000</i>
     <i name="DEPER">      0.30000000</i>
     <i type="int" name="NRMM">     4</i>
     <i name="TIME">      0.40000000</i>
    </separator>
   </separator>
   <separator name="electronic mixer" >
    <i name="AMIX">      0.40000000</i>
    <i name="BMIX">      1.00000000</i>
    <i name="AMIN">      0.10000000</i>
    <i name="AMIX_MAG">      1.60000000</i>
    <i name="BMIX_MAG">      1.00000000</i>
    <separator name="electronic mixer details" >
     <i type="int" name="IMIX">     4</i>
     <i type="logical" name="MIXFIRST"> F  </i>
     <i type="int" name="MAXMIX">   -45</i>
     <i name="WC">    100.00000000</i>
     <i type="int" name="INIMIX">     1</i>
     <i type="int" name="MIXPRE">     1</i>
     <i type="int" name="MREMOVE">     5</i>
    </separator>
   </separator>
   <separator name="electronic dipolcorrection" >
    <i type="logical" name="LDIPOL"> F  </i>
    <i type="logical" name="LMONO"> F  </i>
    <i type="int" name="IDIPOL">     0</i>
    <i name="EPSILON">      1.00000000</i>
    <v name="DIPOL">   -100.00000000   -100.00000000   -100.00000000</v>
    <i name="EFIELD">      0.00000000</i>
   </separator>
  </separator>
  <separator name="grids" >
   <i type="int" name="NGX">    50</i>
   <i type="int" name="NGY">    50</i>
   <i type="int" name="NGZ">   140</i>
   <i type="int" name="NGXF">   100</i>
   <i type="int" name="NGYF">   100</i>
   <i type="int" name="NGZF">   280</i>
   <i type="logical" name="ADDGRID"> F  </i>
  </separator>
  <separator name="ionic" >
   <i type="int" name="NSW">    20</i>
   <i type="int" name="IBRION">     2</i>
   <i type="int" name="MDALGO">     0</i>
   <i type="int" name="ISIF">     0</i>
   <i name="PSTRESS">      0.00000000</i>
   <i name="EDIFFG">      0.00005000</i>
   <i type="int" name="NFREE">     1</i>
   <i name="POTIM">      0.20000000</i>
   <i name="SMASS">     -3.00000000</i>
   <i name="SCALEE">      1.00000000</i>
  </separator>
  <separator name="ionic md" >
   <i name="TEBEG">      0.00010000</i>
   <i name="TEEND">      0.00010000</i>
   <i type="int" name="NBLOCK">     1</i>
   <i type="int" name="KBLOCK">    20</i>
   <i type="int" name="NPACO">   256</i>
   <i name="APACO">     16.00000000</i>
  </separator>
  <separator name="symmetry" >
   <i type="int" name="ISYM">     2</i>
   <i name="SYMPREC">      0.00001000</i>
  </separator>
  <separator name="dos" >
   <i type="int" name="LORBIT">     0</i>
   <v name="RWIGS">     -1.00000000     -1.00000000</v>
   <i type="int" name="NEDOS">   301</i>
   <i name="EMIN">     10.00000000</i>
   <i name="EMAX">    -10.00000000</i>
   <i name="EFERMI">      0.00000000</i>
  </separator>
  <separator name="writing" >
   <i type="int" name="NWRITE">     2</i>
   <i type="logical" name="LWAVE"> F  </i>
   <i type="logical" name="LDOWNSAMPLE"> F  </i>
   <i type="logical" name="LCHARG"> F  </i>
   <i type="logical" name="LPARD"> F  </i>
   <i type="logical" name="LVTOT"> F  </i>
   <i type="logical" name="LVHAR"> F  </i>
   <i type="logical" name="LELF"> F  </i>
   <i type="logical" name="LOPTICS"> F  </i>
   <v name="STM">      0.00000000      0.00000000      0.00000000      0.00000000      0.00000000      0.00000000      0.00000000</v>
  </separator>
  <separator name="performance" >
   <i type="int" name="NPAR">     1</i>
   <i type="int" name="NSIM">     4</i>
   <i type="int" name="NBLK">    -1</i>
   <i type="logical" name="LPLANE"> T  </i>
   <i type="logical" name="LSCALAPACK"> T  </i>
   <i type="logical" name="LSCAAWARE"> F  </i>
   <i type="logical" name="LSCALU"> F  </i>
   <i type="logical" name="LASYNC"> F  </i>
   <i type="logical" name="LORBITALREAL"> F  </i>
  </separator>
  <separator name="miscellaneous" >
   <i type="int" name="IDIOT">     3</i>
   <i type="int" name="PHON_NSTRUCT">    -1</i>
   <i type="logical" name="LMUSIC"> F  </i>
   <v name="POMASS">     58.69000000     16.00000000</v>
   <v name="DARWINR">      0.00000000      0.00000000</v>
   <v name="DARWINV">      1.00000000      1.00000000</v>
   <i type="logical" name="LCORR"> T  </i>
  </separator>
  <i type="logical" name="GGA_COMPAT"> T  </i>
  <i type="logical" name="LBERRY"> F  </i>
  <i type="int" name="ICORELEVEL">     0</i>
  <i type="logical" name="LDAU"> F  </i>
  <i type="int" name="I_CONSTRAINED_M">     0</i>
  <separator name="electronic exchange-correlation" >
   <i type="string" name="GGA">--</i>
   <i type="int" name="VOSKOWN">     0</i>
   <i type="logical" name="LHFCALC"> F  </i>
   <i type="string" name="PRECFOCK"></i>
   <i type="logical" name="LSYMGRAD"> F  </i>
   <i type="logical" name="LHFONE"> F  </i>
   <i type="logical" name="LRHFCALC"> F  </i>
   <i type="logical" name="LTHOMAS"> F  </i>
   <i type="logical" name="LMODELHF"> F  </i>
   <i type="logical" name="LFOCKACE"> F  </i>
   <i name="ENCUT4O">     -1.00000000</i>
   <i type="int" name="EXXOEP">     0</i>
   <i type="int" name="FOURORBIT">     0</i>
   <i name="AEXX">      0.00000000</i>
   <i name="HFALPHA">      0.00000000</i>
   <i name="MCALPHA">      0.00000000</i>
   <i name="ALDAX">      1.00000000</i>
   <i name="AGGAX">      1.00000000</i>
   <i name="ALDAC">      1.00000000</i>
   <i name="AGGAC">      1.00000000</i>
   <i type="int" name="NKREDX">     1</i>
   <i type="int" name="NKREDY">     1</i>
   <i type="int" name="NKREDZ">     1</i>
   <i type="logical" name="SHIFTRED"> F  </i>
   <i type="logical" name="ODDONLY"> F  </i>
   <i type="logical" name="EVENONLY"> F  </i>
   <i type="int" name="LMAXFOCK">     0</i>
   <i type="int" name="NMAXFOCKAE">     0</i>
   <i type="logical" name="LFOCKAEDFT"> F  </i>
   <i name="HFSCREEN">      0.00000000</i>
   <i name="HFSCREENC">      0.00000000</i>
   <i type="int" name="NBANDSGWLOW">     0</i>
  </separator>
  <separator name="vdW DFT" >
   <i type="logical" name="LUSE_VDW"> F  </i>
   <i name="Zab_VDW">     -0.84910000</i>
   <i name="PARAM1">      0.12340000</i>
   <i name="PARAM2">      1.00000000</i>
   <i name="PARAM3">      0.00000000</i>
  </separator>
  <separator name="model GW" >
   <i type="int" name="MODEL_GW">     0</i>
   <i name="MODEL_EPS0">      6.59209568</i>
   <i name="MODEL_ALPHA">      1.00000000</i>
  </separator>
  <separator name="linear response parameters" >
   <i type="logical" name="LEPSILON"> F  </i>
   <i type="logical" name="LRPA"> F  </i>
   <i type="logical" name="LNABLA"> F  </i>
   <i type="logical" name="LVEL"> F  </i>
   <i type="int" name="KINTER">     0</i>
   <i name="CSHIFT">      0.10000000</i>
   <i name="OMEGAMAX">     -1.00000000</i>
   <i name="DEG_THRESHOLD">      0.00200000</i>
   <i name="RTIME">     -0.10000000</i>
   <i name="WPLASMAI">      0.00000000</i>
   <v name="DFIELD">      0.00000000      0.00000000      0.00000000</v>
   <v name="WPLASMA">      0.00000000      0.00000000      0.00000000      0.00000000      0.00000000      0.00000000      0.00000000      0.00000000      0.00000000</v>
  </separator>
  <separator name="orbital magnetization" >
   <i type="logical" name="NUCIND"> F  </i>
   <v name="MAGPOS">      0.00000000      0.00000000      0.00000000</v>
   <i type="logical" name="LNICSALL"> T  </i>
   <i type="logical" name="ORBITALMAG"> F  </i>
   <i type="logical" name="LMAGBLOCH"> F  </i>
   <i type="logical" name="LCHIMAG"> F  </i>
   <i type="logical" name="LGAUGE"> T  </i>
   <i type="int" name="MAGATOM">     0</i>
   <v name="MAGDIPOL">      0.00000000      0.00000000      0.00000000</v>
   <v name="AVECCONST">      0.00000000      0.00000000      0.00000000</v>
  </separator>
  <separator name="response functions" >
   <i type="logical" name="LFINITE_TEMPERATURE"> F  </i>
   <i type="logical" name="LADDER"> F  </i>
   <i type="logical" name="LRPAFORCE"> F  </i>
   <i type="logical" name="LFXC"> F  </i>
   <i type="logical" name="LHARTREE"> T  </i>
   <i type="int" name="IBSE">     0</i>
   <v type="int" name="KPOINT">    -1     0     0     0</v>
   <i type="logical" name="LTCTC"> F  </i>
   <i type="logical" name="LTCTE"> F  </i>
   <i type="logical" name="LTETE"> F  </i>
   <i type="logical" name="LTRIPLET"> F  </i>
   <i type="logical" name="LFXCEPS"> F  </i>
   <i type="logical" name="LFXHEG"> F  </i>
   <i type="int" name="NATURALO">     2</i>
   <i type="logical" name="LHOLEGF"> F  </i>
   <i type="logical" name="L2ORDER"> F  </i>
   <i type="logical" name="LDMP1"> F  </i>
   <i type="logical" name="LMP2LT"> F  </i>
   <i type="logical" name="LSMP2LT"> F  </i>
   <i type="logical" name="LGWLF"> F  </i>
   <i name="ENCUTGW">     -2.00000000</i>
   <i name="ENCUTGWSOFT">     -2.00000000</i>
   <i name="ENCUTLF">     -1.00000000</i>
   <i type="logical" name="LESF_SPLINES"> F  </i>
   <i type="int" name="LMAXMP2">    -1</i>
   <i name="SCISSOR">      0.00000000</i>
   <i type="int" name="NOMEGA">     0</i>
   <i type="int" name="NOMEGAR">     0</i>
   <i type="int" name="NBANDSGW">    -1</i>
   <i type="int" name="NBANDSO">    -1</i>
   <i type="int" name="NBANDSV">    -1</i>
   <i type="int" name="NELM">     1</i>
   <i type="int" name="NELMHF">     1</i>
   <i type="int" name="DIM">     3</i>
   <i type="int" name="IESPILON">     4</i>
   <i type="int" name="ANTIRES">     0</i>
   <i name="OMEGAMAX">    -30.00000000</i>
   <i name="OMEGAMIN">    -30.00000000</i>
   <i name="OMEGATL">   -200.00000000</i>
   <i type="int" name="OMEGAGRID">     0</i>
   <i name="CSHIFT">     -0.10000000</i>
   <i type="logical" name="LSELFENERGY"> F  </i>
   <i type="logical" name="LSPECTRAL"> F  </i>
   <i type="logical" name="LSPECTRALGW"> F  </i>
   <i type="logical" name="LSINGLES"> F  </i>
   <i type="logical" name="LFERMIGW"> F  </i>
   <i type="logical" name="ODDONLYGW"> F  </i>
   <i type="logical" name="EVENONLYGW"> F  </i>
   <i type="int" name="NKREDLFX">     1</i>
   <i type="int" name="NKREDLFY">     1</i>
   <i type="int" name="NKREDLFZ">     1</i>
   <i type="int" name="MAXMEM">  2800</i>
   <i type="int" name="TELESCOPE">     0</i>
   <i type="int" name="NTAUPAR">    -1</i>
   <i type="int" name="NOMEGAPAR">    -1</i>
   <i name="DAMP_NEWTON">      0.80000001</i>
   <i name="LAMBDA">      1.00000000</i>
  </separator>
  <separator name="External order field" >
   <i name="OFIELD_KAPPA">      0.00000000</i>
   <v name="OFIELD_K">      0.00000000      0.00000000      0.00000000</v>
   <i name="OFIELD_Q6_NEAR">      0.00000000</i>
   <i name="OFIELD_Q6_FAR">      0.00000000</i>
   <i name="OFIELD_A">      0.00000000</i>
  </separator>
 </parameters>
 <atominfo>
  <atoms>     250 </atoms>
  <types>       2 </types>
  <array name="atoms" >
   <dimension dim="1">ion</dimension>
   <field type="string">element</field>
   <field type="int">atomtype</field>
   <set>
    <rc><c>Ni</c><c>   1</c></rc>
    <rc><c>Ni</c><c>   1</c></rc>
    <rc><c>Ni</c><c>   1</c></rc>
    <rc><c>Ni</c><c>   1</c></rc>
    <rc><c>Ni</c><c>   1</c></rc>
    <rc><c>Ni</c><c>   1</c></rc>
    <rc><c>Ni</c><c>   1</c></rc>
    <rc><c>Ni</c><c>   1</c></rc>
    <rc><c>Ni</c><c>   1</c></rc>
    <rc><c>Ni</c><c>   1</c></rc>
    <rc><c>Ni</c><c>   1</c></rc>
    <rc><c>Ni</c><c>   1</c></rc>
    <rc><c>Ni</c><c>   1</c></rc>
    <rc><c>Ni</c><c>   1</c></rc>
    <rc><c>Ni</c><c>   1</c></rc>
    <rc><c>Ni</c><c>   1</c></rc>
    <rc><c>Ni</c><c>   1</c></rc>
    <rc><c>Ni</c><c>   1</c></rc>
    <rc><c>Ni</c><c>   1</c></rc>
    <rc><c>Ni</c><c>   1</c></rc>
    <rc><c>Ni</c><c>   1</c></rc>
    <rc><c>Ni</c><c>   1</c></rc>
    <rc><c>Ni</c><c>   1</c></rc>
    <rc><c>Ni</c><c>   1</c></rc>
    <rc><c>Ni</c><c>   1</c></rc>
    <rc><c>Ni</c><c>   1</c></rc>
    <rc><c>Ni</c><c>   1</c></rc>
    <rc><c>Ni</c><c>   1</c></rc>
    <rc><c>Ni</c><c>   1</c></rc>
    <rc><c>Ni</c><c>   1</c></rc>
    <rc><c>Ni</c><c>   1</c></rc>
    <rc><c>Ni</c><c>   1</c></rc>
    <rc><c>Ni</c><c>   1</c></rc>
    <rc><c>Ni</c><c>   1</c></rc>
    <rc><c>Ni</c><c>   1</c></rc>
    <rc><c>Ni</c><c>   1</c></rc>
    <rc><c>Ni</c><c>   1</c></rc>
    <rc><c>Ni</c><c>   1</c></rc>
    <rc><c>Ni</c><c>   1</c></rc>
    <rc><c>Ni</c><c>   1</c></rc>
    <rc><c>Ni</c><c>   1</c></rc>
    <rc><c>Ni</c><c>   1</c></rc>
    <rc><c>Ni</c><c>   1</c></rc>
    <rc><c>Ni</c><c>   1</c></rc>
    <rc><c>Ni</c><c>   1</c></rc>
    <rc><c>Ni</c><c>   1</c></rc>
    <rc><c>Ni</c><c>   1</c></rc>
    <rc><c>Ni</c><c>   1</c></rc>
    <rc><c>Ni</c><c>   1</c></rc>
    <rc><c>Ni</c><c>   1</c></rc>
    <rc><c>Ni</c><c>   1</c></rc>
    <rc><c>Ni</c><c>   1</c></rc>
    <rc><c>Ni</c><c>   1</c></rc>
    <rc><c>Ni</c><c>   1</c></rc>
    <rc><c>Ni</c><c>   1</c></rc>
    <rc><c>Ni</c><c>   1</c></rc>
    <rc><c>Ni</c><c>   1</c></rc>
    <rc><c>Ni</c><c>   1</c></rc>
    <rc><c>Ni</c><c>   1</c></rc>
    <rc><c>Ni</c><c>   1</c></rc>
    <rc><c>Ni</c><c>   1</c></rc>
    <rc><c>Ni</c><c>   1</c></rc>
    <rc><c>Ni</c><c>   1</c></rc>
    <rc><c>Ni</c><c>   1</c></rc>
    <rc><c>Ni</c><c>   1</c></rc>
    <rc><c>Ni</c><c>   1</c></rc>
    <rc><c>Ni</c><c>   1</c></rc>
    <rc><c>Ni</c><c>   1</c></rc>
    <rc><c>Ni</c><c>   1</c></rc>
    <rc><c>Ni</c><c>   1</c></rc>
    <rc><c>Ni</c><c>   1</c></rc>
    <rc><c>Ni</c><c>   1</c></rc>
    <rc><c>Ni</c><c>   1</c></rc>
    <rc><c>Ni</c><c>   1</c></rc>
    <rc><c>Ni</c><c>   1</c></rc>
    <rc><c>Ni</c><c>   1</c></rc>
    <rc><c>Ni</c><c>   1</c></rc>
    <rc><c>Ni</c><c>   1</c></rc>
    <rc><c>Ni</c><c>   1</c></rc>
    <rc><c>Ni</c><c>   1</c></rc>
    <rc><c>Ni</c><c>   1</c></rc>
    <rc><c>Ni</c><c>   1</c></rc>
    <rc><c>Ni</c><c>   1</c></rc>
    <rc><c>Ni</c><c>   1</c></rc>
    <rc><c>Ni</c><c>   1</c></rc>
    <rc><c>Ni</c><c>   1</c></rc>
    <rc><c>Ni</c><c>   1</c></rc>
    <rc><c>Ni</c><c>   1</c></rc>
    <rc><c>Ni</c><c>   1</c></rc>
    <rc><c>Ni</c><c>   1</c></rc>
    <rc><c>Ni</c><c>   1</c></rc>
    <rc><c>Ni</c><c>   1</c></rc>
    <rc><c>Ni</c><c>   1</c></rc>
    <rc><c>Ni</c><c>   1</c></rc>
    <rc><c>Ni</c><c>   1</c></rc>
    <rc><c>Ni</c><c>   1</c></rc>
    <rc><c>Ni</c><c>   1</c></rc>
    <rc><c>Ni</c><c>   1</c></rc>
    <rc><c>Ni</c><c>   1</c></rc>
    <rc><c>Ni</c><c>   1</c></rc>
    <rc><c>Ni</c><c>   1</c></rc>
    <rc><c>Ni</c><c>   1</c></rc>
    <rc><c>Ni</c><c>   1</c></rc>
    <rc><c>Ni</c><c>   1</c></rc>
    <rc><c>Ni</c><c>   1</c></rc>
    <rc><c>Ni</c><c>   1</c></rc>
    <rc><c>Ni</c><c>   1</c></rc>
    <rc><c>Ni</c><c>   1</c></rc>
    <rc><c>Ni</c><c>   1</c></rc>
    <rc><c>Ni</c><c>   1</c></rc>
    <rc><c>Ni</c><c>   1</c></rc>
    <rc><c>Ni</c><c>   1</c></rc>
    <rc><c>Ni</c><c>   1</c></rc>
    <rc><c>Ni</c><c>   1</c></rc>
    <rc><c>Ni</c><c>   1</c></rc>
    <rc><c>Ni</c><c>   1</c></rc>
    <rc><c>Ni</c><c>   1</c></rc>
    <rc><c>Ni</c><c>   1</c></rc>
    <rc><c>Ni</c><c>   1</c></rc>
    <rc><c>Ni</c><c>   1</c></rc>
    <rc><c>Ni</c><c>   1</c></rc>
    <rc><c>Ni</c><c>   1</c></rc>
    <rc><c>Ni</c><c>   1</c></rc>
    <rc><c>Ni</c><c>   1</c></rc>
    <rc><c>Ni</c><c>   1</c></rc>
    <rc><c>O </c><c>   2</c></rc>
    <rc><c>O </c><c>   2</c></rc>
    <rc><c>O </c><c>   2</c></rc>
    <rc><c>O </c><c>   2</c></rc>
    <rc><c>O </c><c>   2</c></rc>
    <rc><c>O </c><c>   2</c></rc>
    <rc><c>O </c><c>   2</c></rc>
    <rc><c>O </c><c>   2</c></rc>
    <rc><c>O </c><c>   2</c></rc>
    <rc><c>O </c><c>   2</c></rc>
    <rc><c>O </c><c>   2</c></rc>
    <rc><c>O </c><c>   2</c></rc>
    <rc><c>O </c><c>   2</c></rc>
    <rc><c>O </c><c>   2</c></rc>
    <rc><c>O </c><c>   2</c></rc>
    <rc><c>O </c><c>   2</c></rc>
    <rc><c>O </c><c>   2</c></rc>
    <rc><c>O </c><c>   2</c></rc>
    <rc><c>O </c><c>   2</c></rc>
    <rc><c>O </c><c>   2</c></rc>
    <rc><c>O </c><c>   2</c></rc>
    <rc><c>O </c><c>   2</c></rc>
    <rc><c>O </c><c>   2</c></rc>
    <rc><c>O </c><c>   2</c></rc>
    <rc><c>O </c><c>   2</c></rc>
    <rc><c>O </c><c>   2</c></rc>
    <rc><c>O </c><c>   2</c></rc>
    <rc><c>O </c><c>   2</c></rc>
    <rc><c>O </c><c>   2</c></rc>
    <rc><c>O </c><c>   2</c></rc>
    <rc><c>O </c><c>   2</c></rc>
    <rc><c>O </c><c>   2</c></rc>
    <rc><c>O </c><c>   2</c></rc>
    <rc><c>O </c><c>   2</c></rc>
    <rc><c>O </c><c>   2</c></rc>
    <rc><c>O </c><c>   2</c></rc>
    <rc><c>O </c><c>   2</c></rc>
    <rc><c>O </c><c>   2</c></rc>
    <rc><c>O </c><c>   2</c></rc>
    <rc><c>O </c><c>   2</c></rc>
    <rc><c>O </c><c>   2</c></rc>
    <rc><c>O </c><c>   2</c></rc>
    <rc><c>O </c><c>   2</c></rc>
    <rc><c>O </c><c>   2</c></rc>
    <rc><c>O </c><c>   2</c></rc>
    <rc><c>O </c><c>   2</c></rc>
    <rc><c>O </c><c>   2</c></rc>
    <rc><c>O </c><c>   2</c></rc>
    <rc><c>O </c><c>   2</c></rc>
    <rc><c>O </c><c>   2</c></rc>
    <rc><c>O </c><c>   2</c></rc>
    <rc><c>O </c><c>   2</c></rc>
    <rc><c>O </c><c>   2</c></rc>
    <rc><c>O </c><c>   2</c></rc>
    <rc><c>O </c><c>   2</c></rc>
    <rc><c>O </c><c>   2</c></rc>
    <rc><c>O </c><c>   2</c></rc>
    <rc><c>O </c><c>   2</c></rc>
    <rc><c>O </c><c>   2</c></rc>
    <rc><c>O </c><c>   2</c></rc>
    <rc><c>O </c><c>   2</c></rc>
    <rc><c>O </c><c>   2</c></rc>
    <rc><c>O </c><c>   2</c></rc>
    <rc><c>O </c><c>   2</c></rc>
    <rc><c>O </c><c>   2</c></rc>
    <rc><c>O </c><c>   2</c></rc>
    <rc><c>O </c><c>   2</c></rc>
    <rc><c>O </c><c>   2</c></rc>
    <rc><c>O </c><c>   2</c></rc>
    <rc><c>O </c><c>   2</c></rc>
    <rc><c>O </c><c>   2</c></rc>
    <rc><c>O </c><c>   2</c></rc>
    <rc><c>O </c><c>   2</c></rc>
    <rc><c>O </c><c>   2</c></rc>
    <rc><c>O </c><c>   2</c></rc>
    <rc><c>O </c><c>   2</c></rc>
    <rc><c>O </c><c>   2</c></rc>
    <rc><c>O </c><c>   2</c></rc>
    <rc><c>O </c><c>   2</c></rc>
    <rc><c>O </c><c>   2</c></rc>
    <rc><c>O </c><c>   2</c></rc>
    <rc><c>O </c><c>   2</c></rc>
    <rc><c>O </c><c>   2</c></rc>
    <rc><c>O </c><c>   2</c></rc>
    <rc><c>O </c><c>   2</c></rc>
    <rc><c>O </c><c>   2</c></rc>
    <rc><c>O </c><c>   2</c></rc>
    <rc><c>O </c><c>   2</c></rc>
    <rc><c>O </c><c>   2</c></rc>
    <rc><c>O </c><c>   2</c></rc>
    <rc><c>O </c><c>   2</c></rc>
    <rc><c>O </c><c>   2</c></rc>
    <rc><c>O </c><c>   2</c></rc>
    <rc><c>O </c><c>   2</c></rc>
    <rc><c>O </c><c>   2</c></rc>
    <rc><c>O </c><c>   2</c></rc>
    <rc><c>O </c><c>   2</c></rc>
    <rc><c>O </c><c>   2</c></rc>
    <rc><c>O </c><c>   2</c></rc>
    <rc><c>O </c><c>   2</c></rc>
    <rc><c>O </c><c>   2</c></rc>
    <rc><c>O </c><c>   2</c></rc>
    <rc><c>O </c><c>   2</c></rc>
    <rc><c>O </c><c>   2</c></rc>
    <rc><c>O </c><c>   2</c></rc>
    <rc><c>O </c><c>   2</c></rc>
    <rc><c>O </c><c>   2</c></rc>
    <rc><c>O </c><c>   2</c></rc>
    <rc><c>O </c><c>   2</c></rc>
    <rc><c>O </c><c>   2</c></rc>
    <rc><c>O </c><c>   2</c></rc>
    <rc><c>O </c><c>   2</c></rc>
    <rc><c>O </c><c>   2</c></rc>
    <rc><c>O </c><c>   2</c></rc>
    <rc><c>O </c><c>   2</c></rc>
    <rc><c>O </c><c>   2</c></rc>
    <rc><c>O </c><c>   2</c></rc>
    <rc><c>O </c><c>   2</c></rc>
    <rc><c>O </c><c>   2</c></rc>
    <rc><c>O </c><c>   2</c></rc>
    <rc><c>O </c><c>   2</c></rc>
    <rc><c>O </c><c>   2</c></rc>
    <rc><c>O </c><c>   2</c></rc>
    <rc><c>O </c><c>   2</c></rc>
    <rc><c>O </c><c>   2</c></rc>
   </set>
  </array>
  <array name="atomtypes" >
   <dimension dim="1">type</dimension>
   <field type="int">atomspertype</field>
   <field type="string">element</field>
   <field>mass</field>
   <field>valence</field>
   <field type="string">pseudopotential</field>
   <set>
    <rc><c> 125</c><c>Ni</c><c>     58.69000000</c><c>     10.00000000</c><c>  PAW Ni_GW 31Mar2010                   </c></rc>
    <rc><c> 125</c><c>O </c><c>     16.00000000</c><c>      6.00000000</c><c>  PAW O_GW 19Mar2012                    </c></rc>
   </set>
  </array>
 </atominfo>
 <structure name="initialpos" >
  <crystal>
   <varray name="basis" >
    <v>      10.54150009       0.00000000       0.00000000 </v>
    <v>       5.27075005       9.12920687       0.00000000 </v>
    <v>       0.00000000       0.00000000      28.54150009 </v>
   </varray>
   <i name="volume">   2746.70653362 </i>
   <varray name="rec_basis" >
    <v>       0.09486316      -0.05476927       0.00000000 </v>
    <v>       0.00000000       0.10953854       0.00000000 </v>
    <v>       0.00000000       0.00000000       0.03503670 </v>
   </varray>
  </crystal>
  <varray name="positions" >
   <v>       0.00000000       0.00000000       0.00000000 </v>
   <v>       0.00000000       0.00000000       0.07386788 </v>
   <v>       0.00000000       0.00000000       0.14773576 </v>
   <v>       0.00000000       0.00000000       0.22160364 </v>
   <v>       0.00000000       0.00000000       0.29547151 </v>
   <v>       0.00000000       0.20000000       0.00000000 </v>
   <v>       0.00000000       0.20000000       0.07386788 </v>
   <v>       0.00000000       0.20000000       0.14773576 </v>
   <v>       0.00000000       0.20000000       0.22160364 </v>
   <v>       0.00000000       0.20000000       0.29547151 </v>
   <v>       0.00000000       0.40000001       0.00000000 </v>
   <v>       0.00000000       0.40000001       0.07386788 </v>
   <v>       0.00000000       0.40000001       0.14773576 </v>
   <v>       0.00000000       0.40000001       0.22160364 </v>
   <v>       0.00000000       0.40000001       0.29547151 </v>
   <v>       0.00000000       0.60000002       0.00000000 </v>
   <v>       0.00000000       0.60000002       0.07386788 </v>
   <v>       0.00000000       0.60000002       0.14773576 </v>
   <v>       0.00000000       0.60000002       0.22160364 </v>
   <v>       0.00000000       0.60000002       0.29547151 </v>
   <v>       0.00000000       0.80000001       0.00000000 </v>
   <v>       0.00000000       0.80000001       0.07386788 </v>
   <v>       0.00000000       0.80000001       0.14773576 </v>
   <v>       0.00000000       0.80000001       0.22160364 </v>
   <v>       0.00000000       0.80000001       0.29547151 </v>
   <v>       0.20000000       0.00000000       0.00000000 </v>
   <v>       0.20000000       0.00000000       0.07386788 </v>
   <v>       0.20000000       0.00000000       0.14773576 </v>
   <v>       0.20000000       0.00000000       0.22160364 </v>
   <v>       0.20000000       0.00000000       0.29547151 </v>
   <v>       0.20000000       0.20000000       0.00000000 </v>
   <v>       0.20000000       0.20000000       0.07386788 </v>
   <v>       0.20000000       0.20000000       0.14773576 </v>
   <v>       0.20000000       0.20000000       0.22160364 </v>
   <v>       0.20000000       0.20000000       0.29547151 </v>
   <v>       0.20000000       0.40000001       0.00000000 </v>
   <v>       0.20000000       0.40000001       0.07386788 </v>
   <v>       0.20000000       0.40000001       0.14773576 </v>
   <v>       0.20000000       0.40000001       0.22160364 </v>
   <v>       0.20000000       0.40000001       0.29547151 </v>
   <v>       0.20000000       0.60000002       0.00000000 </v>
   <v>       0.20000000       0.60000002       0.07386788 </v>
   <v>       0.20000000       0.60000002       0.14773576 </v>
   <v>       0.20000000       0.60000002       0.22160364 </v>
   <v>       0.20000000       0.60000002       0.29547151 </v>
   <v>       0.20000000       0.80000001       0.00000000 </v>
   <v>       0.20000000       0.80000001       0.07386788 </v>
   <v>       0.20000000       0.80000001       0.14773576 </v>
   <v>       0.20000000       0.80000001       0.22160364 </v>
   <v>       0.20000000       0.80000001       0.29547151 </v>
   <v>       0.40000001       0.00000000       0.00000000 </v>
   <v>       0.40000001       0.00000000       0.07386788 </v>
   <v>       0.40000001       0.00000000       0.14773576 </v>
   <v>       0.40000001       0.00000000       0.22160364 </v>
   <v>       0.40000001       0.00000000       0.29547151 </v>
   <v>       0.40000001       0.20000000       0.00000000 </v>
   <v>       0.40000001       0.20000000       0.07386788 </v>
   <v>       0.40000001       0.20000000       0.14773576 </v>
   <v>       0.40000001       0.20000000       0.22160364 </v>
   <v>       0.40000001       0.20000000       0.29547151 </v>
   <v>       0.40000001       0.40000001       0.00000000 </v>
   <v>       0.40000001       0.40000001       0.07386788 </v>
   <v>       0.40000001       0.40000001       0.14773576 </v>
   <v>       0.40000001       0.40000001       0.22160364 </v>
   <v>       0.40000001       0.40000001       0.29547151 </v>
   <v>       0.40000001       0.60000002       0.00000000 </v>
   <v>       0.40000001       0.60000002       0.07386788 </v>
   <v>       0.40000001       0.60000002       0.14773576 </v>
   <v>       0.40000001       0.60000002       0.22160364 </v>
   <v>       0.40000001       0.60000002       0.29547151 </v>
   <v>       0.40000001       0.80000001       0.00000000 </v>
   <v>       0.40000001       0.80000001       0.07386788 </v>
   <v>       0.40000001       0.80000001       0.14773576 </v>
   <v>       0.40000001       0.80000001       0.22160364 </v>
   <v>       0.40000001       0.80000001       0.29547151 </v>
   <v>       0.60000002       0.00000000       0.00000000 </v>
   <v>       0.60000002       0.00000000       0.07386788 </v>
   <v>       0.60000002       0.00000000       0.14773576 </v>
   <v>       0.60000002       0.00000000       0.22160364 </v>
   <v>       0.60000002       0.00000000       0.29547151 </v>
   <v>       0.60000002       0.20000000       0.00000000 </v>
   <v>       0.60000002       0.20000000       0.07386788 </v>
   <v>       0.60000002       0.20000000       0.14773576 </v>
   <v>       0.60000002       0.20000000       0.22160364 </v>
   <v>       0.60000002       0.20000000       0.29547151 </v>
   <v>       0.60000002       0.40000001       0.00000000 </v>
   <v>       0.60000002       0.40000001       0.07386788 </v>
   <v>       0.60000002       0.40000001       0.14773576 </v>
   <v>       0.60000002       0.40000001       0.22160364 </v>
   <v>       0.60000002       0.40000001       0.29547151 </v>
   <v>       0.60000002       0.60000002       0.00000000 </v>
   <v>       0.60000002       0.60000002       0.07386788 </v>
   <v>       0.60000002       0.60000002       0.14773576 </v>
   <v>       0.60000002       0.60000002       0.22160364 </v>
   <v>       0.60000002       0.60000002       0.29547151 </v>
   <v>       0.60000002       0.80000001       0.00000000 </v>
   <v>       0.60000002       0.80000001       0.07386788 </v>
   <v>       0.60000002       0.80000001       0.14773576 </v>
   <v>       0.60000002       0.80000001       0.22160364 </v>
   <v>       0.60000002       0.80000001       0.29547151 </v>
   <v>       0.80000001       0.00000000       0.00000000 </v>
   <v>       0.80000001       0.00000000       0.07386788 </v>
   <v>       0.80000001       0.00000000       0.14773576 </v>
   <v>       0.80000001       0.00000000       0.22160364 </v>
   <v>       0.80000001       0.00000000       0.29547151 </v>
   <v>       0.80000001       0.20000000       0.00000000 </v>
   <v>       0.80000001       0.20000000       0.07386788 </v>
   <v>       0.80000001       0.20000000       0.14773576 </v>
   <v>       0.80000001       0.20000000       0.22160364 </v>
   <v>       0.80000001       0.20000000       0.29547151 </v>
   <v>       0.80000001       0.40000001       0.00000000 </v>
   <v>       0.80000001       0.40000001       0.07386788 </v>
   <v>       0.80000001       0.40000001       0.14773576 </v>
   <v>       0.80000001       0.40000001       0.22160364 </v>
   <v>       0.80000001       0.40000001       0.29547151 </v>
   <v>       0.80000001       0.60000002       0.00000000 </v>
   <v>       0.80000001       0.60000002       0.07386788 </v>
   <v>       0.80000001       0.60000002       0.14773576 </v>
   <v>       0.80000001       0.60000002       0.22160364 </v>
   <v>       0.80000001       0.60000002       0.29547151 </v>
   <v>       0.80000001       0.80000001       0.00000000 </v>
   <v>       0.80000001       0.80000001       0.07386788 </v>
   <v>       0.80000001       0.80000001       0.14773576 </v>
   <v>       0.80000001       0.80000001       0.22160364 </v>
   <v>       0.80000001       0.80000001       0.29547151 </v>
   <v>       0.10000000       0.10000000       0.03693394 </v>
   <v>       0.10000000       0.10000000       0.11080182 </v>
   <v>       0.10000000       0.10000000       0.18466969 </v>
   <v>       0.10000000       0.10000000       0.25853757 </v>
   <v>       0.10000000       0.10000000       0.33240544 </v>
   <v>       0.10000000       0.30000001       0.03693394 </v>
   <v>       0.10000000       0.30000001       0.11080182 </v>
   <v>       0.10000000       0.30000001       0.18466969 </v>
   <v>       0.10000000       0.30000001       0.25853757 </v>
   <v>       0.10000000       0.30000001       0.33240544 </v>
   <v>       0.10000000       0.50000000       0.03693394 </v>
   <v>       0.10000000       0.50000000       0.11080182 </v>
   <v>       0.10000000       0.50000000       0.18466969 </v>
   <v>       0.10000000       0.50000000       0.25853757 </v>
   <v>       0.10000000       0.50000000       0.33240544 </v>
   <v>       0.10000000       0.69999999       0.03693394 </v>
   <v>       0.10000000       0.69999999       0.11080182 </v>
   <v>       0.10000000       0.69999999       0.18466969 </v>
   <v>       0.10000000       0.69999999       0.25853757 </v>
   <v>       0.10000000       0.69999999       0.33240544 </v>
   <v>       0.10000000       0.89999998       0.03693394 </v>
   <v>       0.10000000       0.89999998       0.11080182 </v>
   <v>       0.10000000       0.89999998       0.18466969 </v>
   <v>       0.10000000       0.89999998       0.25853757 </v>
   <v>       0.10000000       0.89999998       0.33240544 </v>
   <v>       0.30000001       0.10000000       0.03693394 </v>
   <v>       0.30000001       0.10000000       0.11080182 </v>
   <v>       0.30000001       0.10000000       0.18466969 </v>
   <v>       0.30000001       0.10000000       0.25853757 </v>
   <v>       0.30000001       0.10000000       0.33240544 </v>
   <v>       0.30000001       0.30000001       0.03693394 </v>
   <v>       0.30000001       0.30000001       0.11080182 </v>
   <v>       0.30000001       0.30000001       0.18466969 </v>
   <v>       0.30000001       0.30000001       0.25853757 </v>
   <v>       0.30000001       0.30000001       0.33240544 </v>
   <v>       0.30000001       0.50000000       0.03693394 </v>
   <v>       0.30000001       0.50000000       0.11080182 </v>
   <v>       0.30000001       0.50000000       0.18466969 </v>
   <v>       0.30000001       0.50000000       0.25853757 </v>
   <v>       0.30000001       0.50000000       0.33240544 </v>
   <v>       0.30000001       0.69999999       0.03693394 </v>
   <v>       0.30000001       0.69999999       0.11080182 </v>
   <v>       0.30000001       0.69999999       0.18466969 </v>
   <v>       0.30000001       0.69999999       0.25853757 </v>
   <v>       0.30000001       0.69999999       0.33240544 </v>
   <v>       0.30000001       0.89999998       0.03693394 </v>
   <v>       0.30000001       0.89999998       0.11080182 </v>
   <v>       0.30000001       0.89999998       0.18466969 </v>
   <v>       0.30000001       0.89999998       0.25853757 </v>
   <v>       0.30000001       0.89999998       0.33240544 </v>
   <v>       0.50000000       0.10000000       0.03693394 </v>
   <v>       0.50000000       0.10000000       0.11080182 </v>
   <v>       0.50000000       0.10000000       0.18466969 </v>
   <v>       0.50000000       0.10000000       0.25853757 </v>
   <v>       0.50000000       0.10000000       0.33240544 </v>
   <v>       0.50000000       0.30000001       0.03693394 </v>
   <v>       0.50000000       0.30000001       0.11080182 </v>
   <v>       0.50000000       0.30000001       0.18466969 </v>
   <v>       0.50000000       0.30000001       0.25853757 </v>
   <v>       0.50000000       0.30000001       0.33240544 </v>
   <v>       0.50000000       0.50000000       0.03693394 </v>
   <v>       0.50000000       0.50000000       0.11080182 </v>
   <v>       0.50000000       0.50000000       0.18466969 </v>
   <v>       0.50000000       0.50000000       0.25853757 </v>
   <v>       0.50000000       0.50000000       0.33240544 </v>
   <v>       0.50000000       0.69999999       0.03693394 </v>
   <v>       0.50000000       0.69999999       0.11080182 </v>
   <v>       0.50000000       0.69999999       0.18466969 </v>
   <v>       0.50000000       0.69999999       0.25853757 </v>
   <v>       0.50000000       0.69999999       0.33240544 </v>
   <v>       0.50000000       0.89999998       0.03693394 </v>
   <v>       0.50000000       0.89999998       0.11080182 </v>
   <v>       0.50000000       0.89999998       0.18466969 </v>
   <v>       0.50000000       0.89999998       0.25853757 </v>
   <v>       0.50000000       0.89999998       0.33240544 </v>
   <v>       0.69999999       0.10000000       0.03693394 </v>
   <v>       0.69999999       0.10000000       0.11080182 </v>
   <v>       0.69999999       0.10000000       0.18466969 </v>
   <v>       0.69999999       0.10000000       0.25853757 </v>
   <v>       0.69999999       0.10000000       0.33240544 </v>
   <v>       0.69999999       0.30000001       0.03693394 </v>
   <v>       0.69999999       0.30000001       0.11080182 </v>
   <v>       0.69999999       0.30000001       0.18466969 </v>
   <v>       0.69999999       0.30000001       0.25853757 </v>
   <v>       0.69999999       0.30000001       0.33240544 </v>
   <v>       0.69999999       0.50000000       0.03693394 </v>
   <v>       0.69999999       0.50000000       0.11080182 </v>
   <v>       0.69999999       0.50000000       0.18466969 </v>
   <v>       0.69999999       0.50000000       0.25853757 </v>
   <v>       0.69999999       0.50000000       0.33240544 </v>
   <v>       0.69999999       0.69999999       0.03693394 </v>
   <v>       0.69999999       0.69999999       0.11080182 </v>
   <v>       0.69999999       0.69999999       0.18466969 </v>
   <v>       0.69999999       0.69999999       0.25853757 </v>
   <v>       0.69999999       0.69999999       0.33240544 </v>
   <v>       0.69999999       0.89999998       0.03693394 </v>
   <v>       0.69999999       0.89999998       0.11080182 </v>
   <v>       0.69999999       0.89999998       0.18466969 </v>
   <v>       0.69999999       0.89999998       0.25853757 </v>
   <v>       0.69999999       0.89999998       0.33240544 </v>
   <v>       0.89999998       0.10000000       0.03693394 </v>
   <v>       0.89999998       0.10000000       0.11080182 </v>
   <v>       0.89999998       0.10000000       0.18466969 </v>
   <v>       0.89999998       0.10000000       0.25853757 </v>
   <v>       0.89999998       0.10000000       0.33240544 </v>
   <v>       0.89999998       0.30000001       0.03693394 </v>
   <v>       0.89999998       0.30000001       0.11080182 </v>
   <v>       0.89999998       0.30000001       0.18466969 </v>
   <v>       0.89999998       0.30000001       0.25853757 </v>
   <v>       0.89999998       0.30000001       0.33240544 </v>
   <v>       0.89999998       0.50000000       0.03693394 </v>
   <v>       0.89999998       0.50000000       0.11080182 </v>
   <v>       0.89999998       0.50000000       0.18466969 </v>
   <v>       0.89999998       0.50000000       0.25853757 </v>
   <v>       0.89999998       0.50000000       0.33240544 </v>
   <v>       0.89999998       0.69999999       0.03693394 </v>
   <v>       0.89999998       0.69999999       0.11080182 </v>
   <v>       0.89999998       0.69999999       0.18466969 </v>
   <v>       0.89999998       0.69999999       0.25853757 </v>
   <v>       0.89999998       0.69999999       0.33240544 </v>
   <v>       0.89999998       0.89999998       0.03693394 </v>
   <v>       0.89999998       0.89999998       0.11080182 </v>
   <v>       0.89999998       0.89999998       0.18466969 </v>
   <v>       0.89999998       0.89999998       0.25853757 </v>
   <v>       0.89999998       0.89999998       0.33240544 </v>
  </varray>
 </structure>
 <calculation>
  <scstep>
   <time name="dav">   25.90   25.92</time>
   <time name="total">   26.38   26.40</time>
   <energy>
    <i name="alphaZ">  10882.11978024 </i>
    <i name="ewald">3372356.36625420 </i>
    <i name="hartreedc">**************** </i>
    <i name="XCdc">   5443.61127136 </i>
    <i name="pawpsdc"> 162665.39147911 </i>
    <i name="pawaedc">-172267.95055365 </i>
    <i name="eentropy">     -0.05750730 </i>
    <i name="bandstr">  16365.70782439 </i>
    <i name="atom"> 188700.74019153 </i>
    <i name="e_fr_energy">  31005.82295091 </i>
    <i name="e_wo_entrp">  31005.88045820 </i>
    <i name="e_0_energy">  31005.85170456 </i>
   </energy>
  </scstep>
  <scstep>
   <time name="dav">   26.54   26.55</time>
   <time name="total">   26.55   26.55</time>
   <energy>
    <i name="e_fr_energy">   5118.53413262 </i>
    <i name="e_wo_entrp">   5118.59888730 </i>
    <i name="e_0_energy">   5118.56650996 </i>
   </energy>
  </scstep>
  <scstep>
   <time name="dav">   30.36   30.36</time>
   <time name="total">   30.36   30.37</time>
   <energy>
    <i name="e_fr_energy">    513.84953794 </i>
    <i name="e_wo_entrp">    513.97436909 </i>
    <i name="e_0_energy">    513.91195352 </i>
   </energy>
  </scstep>
  <scstep>
   <time name="dav">   34.38   34.39</time>
   <time name="total">   34.39   34.39</time>
   <energy>
    <i name="e_fr_energy">      2.38792183 </i>
    <i name="e_wo_entrp">      2.53761748 </i>
    <i name="e_0_energy">      2.46276966 </i>
   </energy>
  </scstep>
  <scstep>
   <time name="dav">   32.54   32.55</time>
   <time name="total">   33.74   33.75</time>
   <energy>
    <i name="e_fr_energy">    -14.06658503 </i>
    <i name="e_wo_entrp">    -13.91590522 </i>
    <i name="e_0_energy">    -13.99124512 </i>
   </energy>
  </scstep>
  <scstep>
   <time name="dav">   40.01   40.02</time>
   <time name="total">   41.67   41.68</time>
   <energy>
    <i name="e_fr_energy">   -480.96808889 </i>
    <i name="e_wo_entrp">   -480.79302334 </i>
    <i name="e_0_energy">   -480.88055612 </i>
   </energy>
  </scstep>
  <scstep>
   <time name="dav">   38.65   38.66</time>
   <time name="total">   40.31   40.31</time>
   <energy>
    <i name="e_fr_energy">  -8780.15307031 </i>
    <i name="e_wo_entrp">  -8780.09450888 </i>
    <i name="e_0_energy">  -8780.12378960 </i>
   </energy>
  </scstep>
  <scstep>
   <time name="dav">   37.43   37.44</time>
   <time name="total">   39.10   39.10</time>
   <energy>
    <i name="e_fr_energy">  -9769.45120500 </i>
    <i name="e_wo_entrp">  -9769.36223940 </i>
    <i name="e_0_energy">  -9769.40672220 </i>
   </energy>
  </scstep>
  <scstep>
   <time name="dav">   36.09   36.09</time>
   <time name="total">   37.76   37.76</time>
   <energy>
    <i name="e_fr_energy">  -8676.28985696 </i>
    <i name="e_wo_entrp">  -8676.18114449 </i>
    <i name="e_0_energy">  -8676.23550073 </i>
   </energy>
  </scstep>
  <scstep>
   <time name="dav">   41.42   41.43</time>
   <time name="total">   43.09   43.10</time>
   <energy>
    <i name="e_fr_energy">  -2963.66802522 </i>
    <i name="e_wo_entrp">  -2963.55776557 </i>
    <i name="e_0_energy">  -2963.61289540 </i>
   </energy>
  </scstep>
  <scstep>
   <time name="dav">   32.87   32.87</time>
   <time name="total">   34.55   34.56</time>
   <energy>
    <i name="e_fr_energy">  -3046.26726179 </i>
    <i name="e_wo_entrp">  -3046.07834399 </i>
    <i name="e_0_energy">  -3046.17280289 </i>
   </energy>
  </scstep>
  <scstep>
   <time name="dav">   36.61   36.61</time>
   <time name="total">   38.28   38.28</time>
   <energy>
    <i name="e_fr_energy">  -1378.45104450 </i>
    <i name="e_wo_entrp">  -1378.41691308 </i>
    <i name="e_0_energy">  -1378.43397879 </i>
   </energy>
  </scstep>
  <scstep>
   <time name="dav">   37.61   37.62</time>
   <time name="total">   39.29   39.30</time>
   <energy>
    <i name="e_fr_energy">    264.23100845 </i>
    <i name="e_wo_entrp">    264.25314214 </i>
    <i name="e_0_energy">    264.24207529 </i>
   </energy>
  </scstep>
  <scstep>
   <time name="dav">   33.71   33.71</time>
   <time name="total">   35.39   35.40</time>
   <energy>
    <i name="e_fr_energy">  -4368.88306822 </i>
    <i name="e_wo_entrp">  -4368.80698691 </i>
    <i name="e_0_energy">  -4368.84502756 </i>
   </energy>
  </scstep>
  <scstep>
   <time name="dav">   39.06   39.07</time>
   <time name="total">   40.75   40.75</time>
   <energy>
    <i name="e_fr_energy">  -2653.23526997 </i>
    <i name="e_wo_entrp">  -2653.18026482 </i>
    <i name="e_0_energy">  -2653.20776740 </i>
   </energy>
  </scstep>
  <scstep>
   <time name="dav">   35.24   35.25</time>
   <time name="total">   36.95   36.96</time>
   <energy>
    <i name="e_fr_energy">  -2569.05703061 </i>
    <i name="e_wo_entrp">  -2568.91051144 </i>
    <i name="e_0_energy">  -2568.98377103 </i>
   </energy>
  </scstep>
  <scstep>
   <time name="dav">   39.01   39.01</time>
   <time name="total">   40.72   40.73</time>
   <energy>
    <i name="e_fr_energy">  -1459.70810656 </i>
    <i name="e_wo_entrp">  -1459.52343543 </i>
    <i name="e_0_energy">  -1459.61577099 </i>
   </energy>
  </scstep>
  <scstep>
   <time name="dav">   35.22   35.23</time>
   <time name="total">   36.94   36.94</time>
   <energy>
    <i name="e_fr_energy">   -932.90414418 </i>
    <i name="e_wo_entrp">   -932.72644150 </i>
    <i name="e_0_energy">   -932.81529284 </i>
   </energy>
  </scstep>
  <scstep>
   <time name="dav">   38.59   38.60</time>
   <time name="total">   40.31   40.32</time>
   <energy>
    <i name="e_fr_energy">   -373.16933594 </i>
    <i name="e_wo_entrp">   -373.00771151 </i>
    <i name="e_0_energy">   -373.08852372 </i>
   </energy>
  </scstep>
  <scstep>
   <time name="dav">   29.42   29.42</time>
   <time name="total">   31.14   31.14</time>
   <energy>
    <i name="e_fr_energy">   -161.83079648 </i>
    <i name="e_wo_entrp">   -161.68888747 </i>
    <i name="e_0_energy">   -161.75984197 </i>
   </energy>
  </scstep>
  <scstep>
   <time name="dav">   34.44   34.45</time>
   <time name="total">   36.18   36.18</time>
   <energy>
    <i name="e_fr_energy">     79.03634387 </i>
    <i name="e_wo_entrp">     79.12012215 </i>
    <i name="e_0_energy">     79.07823301 </i>
   </energy>
  </scstep>
  <scstep>
   <time name="dav">   30.22   30.23</time>
   <time name="total">   31.95   31.96</time>
   <energy>
    <i name="e_fr_energy">    166.44919168 </i>
    <i name="e_wo_entrp">    166.52993329 </i>
    <i name="e_0_energy">    166.48956248 </i>
   </energy>
  </scstep>
  <scstep>
   <time name="dav">   29.95   29.96</time>
   <time name="total">   31.70   31.70</time>
   <energy>
    <i name="e_fr_energy">    219.85072475 </i>
    <i name="e_wo_entrp">    219.93275655 </i>
    <i name="e_0_energy">    219.89174065 </i>
   </energy>
  </scstep>
  <scstep>
   <time name="dav">   30.32   30.33</time>
   <time name="total">   32.08   32.09</time>
   <energy>
    <i name="e_fr_energy">    264.26988987 </i>
    <i name="e_wo_entrp">    264.32049673 </i>
    <i name="e_0_energy">    264.29519330 </i>
   </energy>
  </scstep>
  <scstep>
   <time name="dav">   33.14   33.14</time>
   <time name="total">   34.90   34.91</time>
   <energy>
    <i name="e_fr_energy">    264.34849410 </i>
    <i name="e_wo_entrp">    264.43685577 </i>
    <i name="e_0_energy">    264.39267494 </i>
   </energy>
  </scstep>
  <scstep>
   <time name="dav">   31.38   31.39</time>
   <time name="total">   33.16   33.16</time>
   <energy>
    <i name="e_fr_energy">    287.73212892 </i>
    <i name="e_wo_entrp">    287.85207830 </i>
    <i name="e_0_energy">    287.79210361 </i>
   </energy>
  </scstep>
  <scstep>
   <time name="dav">   33.83   33.84</time>
   <time name="total">   35.61   35.61</time>
   <energy>
    <i name="e_fr_energy">    316.83632732 </i>
    <i name="e_wo_entrp">    317.05206840 </i>
    <i name="e_0_energy">    316.94419786 </i>
   </energy>
  </scstep>
  <scstep>
   <time name="dav">   26.74   26.74</time>
   <time name="total">   28.53   28.54</time>
   <energy>
    <i name="e_fr_energy">    316.73759199 </i>
    <i name="e_wo_entrp">    316.98646874 </i>
    <i name="e_0_energy">    316.86203036 </i>
   </energy>
  </scstep>
  <scstep>
   <time name="dav">   37.06   37.07</time>
   <time name="total">   38.86   38.86</time>
   <energy>
    <i name="e_fr_energy">    317.35121707 </i>
    <i name="e_wo_entrp">    317.58406236 </i>
    <i name="e_0_energy">    317.46763971 </i>
   </energy>
  </scstep>
  <scstep>
   <time name="dav">   36.90   36.91</time>
   <time name="total">   38.70   38.72</time>
   <energy>
    <i name="e_fr_energy">    294.69498274 </i>
    <i name="e_wo_entrp">    294.90826935 </i>
    <i name="e_0_energy">    294.80162604 </i>
   </energy>
  </scstep>
  <scstep>
   <time name="dav">   31.99   31.99</time>
   <time name="total">   33.80   33.81</time>
   <energy>
    <i name="e_fr_energy">    280.89110494 </i>
    <i name="e_wo_entrp">    281.09209995 </i>
    <i name="e_0_energy">    280.99160245 </i>
   </energy>
  </scstep>
  <scstep>
   <time name="dav">   33.15   33.16</time>
   <time name="total">   34.98   34.99</time>
   <energy>
    <i name="e_fr_energy">    259.45874813 </i>
    <i name="e_wo_entrp">    259.66013985 </i>
    <i name="e_0_energy">    259.55944399 </i>
   </energy>
  </scstep>
  <scstep>
   <time name="dav">   30.53   30.53</time>
   <time name="total">   32.36   32.37</time>
   <energy>
    <i name="e_fr_energy">    204.72884430 </i>
    <i name="e_wo_entrp">    204.85824776 </i>
    <i name="e_0_energy">    204.79354603 </i>
   </energy>
  </scstep>
  <scstep>
   <time name="dav">   26.90   26.91</time>
   <time name="total">   28.75   28.76</time>
   <energy>
    <i name="e_fr_energy">    211.05544975 </i>
    <i name="e_wo_entrp">    211.17725841 </i>
    <i name="e_0_energy">    211.11635408 </i>
   </energy>
  </scstep>
  <scstep>
   <time name="dav">   29.17   29.18</time>
   <time name="total">   31.03   31.03</time>
   <energy>
    <i name="e_fr_energy">    210.15169040 </i>
    <i name="e_wo_entrp">    210.29666210 </i>
    <i name="e_0_energy">    210.22417625 </i>
   </energy>
  </scstep>
  <scstep>
   <time name="dav">   31.90   31.91</time>
   <time name="total">   33.76   33.77</time>
   <energy>
    <i name="e_fr_energy">    235.33834942 </i>
    <i name="e_wo_entrp">    235.52894423 </i>
    <i name="e_0_energy">    235.43364682 </i>
   </energy>
  </scstep>
  <scstep>
   <time name="dav">   35.33   35.34</time>
   <time name="total">   37.22   37.23</time>
   <energy>
    <i name="e_fr_energy">    278.62421035 </i>
    <i name="e_wo_entrp">    278.80010429 </i>
    <i name="e_0_energy">    278.71215732 </i>
   </energy>
  </scstep>
  <scstep>
   <time name="dav">   31.17   31.18</time>
   <time name="total">   33.05   33.06</time>
   <energy>
    <i name="e_fr_energy">    307.32134040 </i>
    <i name="e_wo_entrp">    307.51183925 </i>
    <i name="e_0_energy">    307.41658983 </i>
   </energy>
  </scstep>
  <scstep>
   <time name="dav">   31.91   31.91</time>
   <time name="total">   33.82   33.83</time>
   <energy>
    <i name="e_fr_energy">    315.47391669 </i>
    <i name="e_wo_entrp">    315.70912155 </i>
    <i name="e_0_energy">    315.59151912 </i>
   </energy>
  </scstep>
  <scstep>
   <time name="dav">   28.87   28.87</time>
   <time name="total">   30.78   30.79</time>
   <energy>
    <i name="e_fr_energy">    314.78126863 </i>
    <i name="e_wo_entrp">    314.98564735 </i>
    <i name="e_0_energy">    314.88345799 </i>
   </energy>
  </scstep>
  <scstep>
   <time name="dav">   37.98   37.99</time>
   <time name="total">   39.92   39.93</time>
   <energy>
    <i name="e_fr_energy">    353.88175446 </i>
    <i name="e_wo_entrp">    353.97532909 </i>
    <i name="e_0_energy">    353.92854177 </i>
   </energy>
  </scstep>
  <scstep>
   <time name="dav">   32.85   32.85</time>
   <time name="total">   34.78   34.80</time>
   <energy>
    <i name="e_fr_energy">    364.63348738 </i>
    <i name="e_wo_entrp">    364.73963872 </i>
    <i name="e_0_energy">    364.68656305 </i>
   </energy>
  </scstep>
  <scstep>
   <time name="dav">   33.23   33.24</time>
   <time name="total">   35.20   35.21</time>
   <energy>
    <i name="e_fr_energy">    383.06671748 </i>
    <i name="e_wo_entrp">    383.20459219 </i>
    <i name="e_0_energy">    383.13565484 </i>
   </energy>
  </scstep>
  <scstep>
   <time name="dav">   29.14   29.14</time>
   <time name="total">   31.10   31.10</time>
   <energy>
    <i name="e_fr_energy">    387.29150360 </i>
    <i name="e_wo_entrp">    387.42530978 </i>
    <i name="e_0_energy">    387.35840669 </i>
   </energy>
  </scstep>
  <scstep>
   <time name="dav">   30.64   30.65</time>
   <time name="total">   32.63   32.63</time>
   <energy>
    <i name="e_fr_energy">    386.90749378 </i>
    <i name="e_wo_entrp">    387.05938311 </i>
    <i name="e_0_energy">    386.98343844 </i>
   </energy>
  </scstep>
  <scstep>
   <time name="dav">   38.19   38.20</time>
   <time name="total">   40.19   40.20</time>
   <energy>
    <i name="e_fr_energy">    389.20548845 </i>
    <i name="e_wo_entrp">    389.29340758 </i>
    <i name="e_0_energy">    389.24944802 </i>
   </energy>
  </scstep>
  <scstep>
   <time name="dav">   30.15   30.16</time>
   <time name="total">   32.17   32.17</time>
   <energy>
    <i name="e_fr_energy">    388.41113903 </i>
    <i name="e_wo_entrp">    388.49652120 </i>
    <i name="e_0_energy">    388.45383011 </i>
   </energy>
  </scstep>
  <scstep>
   <time name="dav">   26.17   26.17</time>
   <time name="total">   28.18   28.18</time>
   <energy>
    <i name="e_fr_energy">    389.13815067 </i>
    <i name="e_wo_entrp">    389.22415641 </i>
    <i name="e_0_energy">    389.18115354 </i>
   </energy>
  </scstep>
  <scstep>
   <time name="dav">   37.90   37.91</time>
   <time name="total">   39.94   39.95</time>
   <energy>
    <i name="e_fr_energy">    385.78705997 </i>
    <i name="e_wo_entrp">    385.88450067 </i>
    <i name="e_0_energy">    385.83578032 </i>
   </energy>
  </scstep>
  <scstep>
   <time name="dav">   27.06   27.07</time>
   <time name="total">   29.08   29.08</time>
   <energy>
    <i name="e_fr_energy">    385.55188032 </i>
    <i name="e_wo_entrp">    385.65257081 </i>
    <i name="e_0_energy">    385.60222556 </i>
   </energy>
  </scstep>
  <scstep>
   <time name="dav">   35.46   35.46</time>
   <time name="total">   37.45   37.45</time>
   <energy>
    <i name="e_fr_energy">    364.57887750 </i>
    <i name="e_wo_entrp">    364.66964417 </i>
    <i name="e_0_energy">    364.62426084 </i>
   </energy>
  </scstep>
  <scstep>
   <time name="dav">   28.35   28.35</time>
   <time name="total">   30.36   30.36</time>
   <energy>
    <i name="e_fr_energy">    381.90776837 </i>
    <i name="e_wo_entrp">    381.96696284 </i>
    <i name="e_0_energy">    381.93736560 </i>
   </energy>
  </scstep>
  <scstep>
   <time name="dav">   33.45   33.46</time>
   <time name="total">   35.49   35.49</time>
   <energy>
    <i name="e_fr_energy">    390.09960889 </i>
    <i name="e_wo_entrp">    390.28093140 </i>
    <i name="e_0_energy">    390.19027015 </i>
   </energy>
  </scstep>
  <scstep>
   <time name="dav">   41.09   41.10</time>
   <time name="total">   43.13   43.13</time>
   <energy>
    <i name="e_fr_energy">    389.94939525 </i>
    <i name="e_wo_entrp">    390.12221453 </i>
    <i name="e_0_energy">    390.03580489 </i>
   </energy>
  </scstep>
  <scstep>
   <time name="dav">   26.79   26.80</time>
   <time name="total">   28.82   28.83</time>
   <energy>
    <i name="e_fr_energy">    392.83001591 </i>
    <i name="e_wo_entrp">    393.01093991 </i>
    <i name="e_0_energy">    392.92047791 </i>
   </energy>
  </scstep>
  <scstep>
   <time name="dav">   28.89   28.89</time>
   <time name="total">   30.89   30.90</time>
   <energy>
    <i name="e_fr_energy">    426.62540922 </i>
    <i name="e_wo_entrp">    426.75795259 </i>
    <i name="e_0_energy">    426.69168091 </i>
   </energy>
  </scstep>
  <scstep>
   <time name="dav">   29.48   29.48</time>
   <time name="total">   31.47   31.48</time>
   <energy>
    <i name="e_fr_energy">    425.77077296 </i>
    <i name="e_wo_entrp">    425.93448155 </i>
    <i name="e_0_energy">    425.85262726 </i>
   </energy>
  </scstep>
  <scstep>
   <time name="dav">   29.54   29.54</time>
   <time name="total">   31.56   31.57</time>
   <energy>
    <i name="e_fr_energy">    423.80176845 </i>
    <i name="e_wo_entrp">    423.93556169 </i>
    <i name="e_0_energy">    423.86866507 </i>
   </energy>
  </scstep>
  <scstep>
   <time name="dav">   29.40   29.41</time>
   <time name="total">   31.43   31.44</time>
   <energy>
    <i name="e_fr_energy">    424.14605309 </i>
    <i name="e_wo_entrp">    424.28315462 </i>
    <i name="e_0_energy">    424.21460386 </i>
   </energy>
  </scstep>
  <scstep>
   <time name="dav">   29.28   29.29</time>
   <time name="total">   29.76   29.76</time>
   <energy>
    <i name="alphaZ">  10882.11978024 </i>
    <i name="ewald">3372356.36625420 </i>
    <i name="hartreedc">**************** </i>
    <i name="XCdc">   5487.50869738 </i>
    <i name="pawpsdc"> 548523.26965402 </i>
    <i name="pawaedc">-560417.51057317 </i>
    <i name="eentropy">     -0.11971341 </i>
    <i name="bandstr"> -19808.40548748 </i>
    <i name="atom"> 188700.74019153 </i>
    <i name="e_fr_energy">    423.88338248 </i>
    <i name="e_wo_entrp">    424.00309589 </i>
    <i name="e_0_energy">    423.94323918 </i>
   </energy>
  </scstep>
  <structure>
   <crystal>
    <varray name="basis" >
     <v>      10.54150009       0.00000000       0.00000000 </v>
     <v>       5.27075005       9.12920687       0.00000000 </v>
     <v>       0.00000000       0.00000000      28.54150009 </v>
    </varray>
    <i name="volume">   2746.70653362 </i>
    <varray name="rec_basis" >
     <v>       0.09486316      -0.05476927       0.00000000 </v>
     <v>       0.00000000       0.10953854       0.00000000 </v>
     <v>       0.00000000       0.00000000       0.03503670 </v>
    </varray>
   </crystal>
   <varray name="positions" >
    <v>       0.00000000       0.00000000       0.00000000 </v>
    <v>       0.00000000       0.00000000       0.07386788 </v>
    <v>       0.00000000       0.00000000       0.14773576 </v>
    <v>       0.00000000       0.00000000       0.22160364 </v>
    <v>       0.00000000       0.00000000       0.29547151 </v>
    <v>       0.00000000       0.20000000       0.00000000 </v>
    <v>       0.00000000       0.20000000       0.07386788 </v>
    <v>       0.00000000       0.20000000       0.14773576 </v>
    <v>       0.00000000       0.20000000       0.22160364 </v>
    <v>       0.00000000       0.20000000       0.29547151 </v>
    <v>       0.00000000       0.40000001       0.00000000 </v>
    <v>       0.00000000       0.40000001       0.07386788 </v>
    <v>       0.00000000       0.40000001       0.14773576 </v>
    <v>       0.00000000       0.40000001       0.22160364 </v>
    <v>       0.00000000       0.40000001       0.29547151 </v>
    <v>       0.00000000       0.60000002       0.00000000 </v>
    <v>       0.00000000       0.60000002       0.07386788 </v>
    <v>       0.00000000       0.60000002       0.14773576 </v>
    <v>       0.00000000       0.60000002       0.22160364 </v>
    <v>       0.00000000       0.60000002       0.29547151 </v>
    <v>       0.00000000       0.80000001       0.00000000 </v>
    <v>       0.00000000       0.80000001       0.07386788 </v>
    <v>       0.00000000       0.80000001       0.14773576 </v>
    <v>       0.00000000       0.80000001       0.22160364 </v>
    <v>       0.00000000       0.80000001       0.29547151 </v>
    <v>       0.20000000       0.00000000       0.00000000 </v>
    <v>       0.20000000       0.00000000       0.07386788 </v>
    <v>       0.20000000       0.00000000       0.14773576 </v>
    <v>       0.20000000       0.00000000       0.22160364 </v>
    <v>       0.20000000       0.00000000       0.29547151 </v>
    <v>       0.20000000       0.20000000       0.00000000 </v>
    <v>       0.20000000       0.20000000       0.07386788 </v>
    <v>       0.20000000       0.20000000       0.14773576 </v>
    <v>       0.20000000       0.20000000       0.22160364 </v>
    <v>       0.20000000       0.20000000       0.29547151 </v>
    <v>       0.20000000       0.40000001       0.00000000 </v>
    <v>       0.20000000       0.40000001       0.07386788 </v>
    <v>       0.20000000       0.40000001       0.14773576 </v>
    <v>       0.20000000       0.40000001       0.22160364 </v>
    <v>       0.20000000       0.40000001       0.29547151 </v>
    <v>       0.20000000       0.60000002       0.00000000 </v>
    <v>       0.20000000       0.60000002       0.07386788 </v>
    <v>       0.20000000       0.60000002       0.14773576 </v>
    <v>       0.20000000       0.60000002       0.22160364 </v>
    <v>       0.20000000       0.60000002       0.29547151 </v>
    <v>       0.20000000       0.80000001       0.00000000 </v>
    <v>       0.20000000       0.80000001       0.07386788 </v>
    <v>       0.20000000       0.80000001       0.14773576 </v>
    <v>       0.20000000       0.80000001       0.22160364 </v>
    <v>       0.20000000       0.80000001       0.29547151 </v>
    <v>       0.40000001       0.00000000       0.00000000 </v>
    <v>       0.40000001       0.00000000       0.07386788 </v>
    <v>       0.40000001       0.00000000       0.14773576 </v>
    <v>       0.40000001       0.00000000       0.22160364 </v>
    <v>       0.40000001       0.00000000       0.29547151 </v>
    <v>       0.40000001       0.20000000       0.00000000 </v>
    <v>       0.40000001       0.20000000       0.07386788 </v>
    <v>       0.40000001       0.20000000       0.14773576 </v>
    <v>       0.40000001       0.20000000       0.22160364 </v>
    <v>       0.40000001       0.20000000       0.29547151 </v>
    <v>       0.40000001       0.40000001       0.00000000 </v>
    <v>       0.40000001       0.40000001       0.07386788 </v>
    <v>       0.40000001       0.40000001       0.14773576 </v>
    <v>       0.40000001       0.40000001       0.22160364 </v>
    <v>       0.40000001       0.40000001       0.29547151 </v>
    <v>       0.40000001       0.60000002       0.00000000 </v>
    <v>       0.40000001       0.60000002       0.07386788 </v>
    <v>       0.40000001       0.60000002       0.14773576 </v>
    <v>       0.40000001       0.60000002       0.22160364 </v>
    <v>       0.40000001       0.60000002       0.29547151 </v>
    <v>       0.40000001       0.80000001       0.00000000 </v>
    <v>       0.40000001       0.80000001       0.07386788 </v>
    <v>       0.40000001       0.80000001       0.14773576 </v>
    <v>       0.40000001       0.80000001       0.22160364 </v>
    <v>       0.40000001       0.80000001       0.29547151 </v>
    <v>       0.60000002       0.00000000       0.00000000 </v>
    <v>       0.60000002       0.00000000       0.07386788 </v>
    <v>       0.60000002       0.00000000       0.14773576 </v>
    <v>       0.60000002       0.00000000       0.22160364 </v>
    <v>       0.60000002       0.00000000       0.29547151 </v>
    <v>       0.60000002       0.20000000       0.00000000 </v>
    <v>       0.60000002       0.20000000       0.07386788 </v>
    <v>       0.60000002       0.20000000       0.14773576 </v>
    <v>       0.60000002       0.20000000       0.22160364 </v>
    <v>       0.60000002       0.20000000       0.29547151 </v>
    <v>       0.60000002       0.40000001       0.00000000 </v>
    <v>       0.60000002       0.40000001       0.07386788 </v>
    <v>       0.60000002       0.40000001       0.14773576 </v>
    <v>       0.60000002       0.40000001       0.22160364 </v>
    <v>       0.60000002       0.40000001       0.29547151 </v>
    <v>       0.60000002       0.60000002       0.00000000 </v>
    <v>       0.60000002       0.60000002       0.07386788 </v>
    <v>       0.60000002       0.60000002       0.14773576 </v>
    <v>       0.60000002       0.60000002       0.22160364 </v>
    <v>       0.60000002       0.60000002       0.29547151 </v>
    <v>       0.60000002       0.80000001       0.00000000 </v>
    <v>       0.60000002       0.80000001       0.07386788 </v>
    <v>       0.60000002       0.80000001       0.14773576 </v>
    <v>       0.60000002       0.80000001       0.22160364 </v>
    <v>       0.60000002       0.80000001       0.29547151 </v>
    <v>       0.80000001       0.00000000       0.00000000 </v>
    <v>       0.80000001       0.00000000       0.07386788 </v>
    <v>       0.80000001       0.00000000       0.14773576 </v>
    <v>       0.80000001       0.00000000       0.22160364 </v>
    <v>       0.80000001       0.00000000       0.29547151 </v>
    <v>       0.80000001       0.20000000       0.00000000 </v>
    <v>       0.80000001       0.20000000       0.07386788 </v>
    <v>       0.80000001       0.20000000       0.14773576 </v>
    <v>       0.80000001       0.20000000       0.22160364 </v>
    <v>       0.80000001       0.20000000       0.29547151 </v>
    <v>       0.80000001       0.40000001       0.00000000 </v>
    <v>       0.80000001       0.40000001       0.07386788 </v>
    <v>       0.80000001       0.40000001       0.14773576 </v>
    <v>       0.80000001       0.40000001       0.22160364 </v>
    <v>       0.80000001       0.40000001       0.29547151 </v>
    <v>       0.80000001       0.60000002       0.00000000 </v>
    <v>       0.80000001       0.60000002       0.07386788 </v>
    <v>       0.80000001       0.60000002       0.14773576 </v>
    <v>       0.80000001       0.60000002       0.22160364 </v>
    <v>       0.80000001       0.60000002       0.29547151 </v>
    <v>       0.80000001       0.80000001       0.00000000 </v>
    <v>       0.80000001       0.80000001       0.07386788 </v>
    <v>       0.80000001       0.80000001       0.14773576 </v>
    <v>       0.80000001       0.80000001       0.22160364 </v>
    <v>       0.80000001       0.80000001       0.29547151 </v>
    <v>       0.10000000       0.10000000       0.03693394 </v>
    <v>       0.10000000       0.10000000       0.11080182 </v>
    <v>       0.10000000       0.10000000       0.18466969 </v>
    <v>       0.10000000       0.10000000       0.25853757 </v>
    <v>       0.10000000       0.10000000       0.33240544 </v>
    <v>       0.10000000       0.30000001       0.03693394 </v>
    <v>       0.10000000       0.30000001       0.11080182 </v>
    <v>       0.10000000       0.30000001       0.18466969 </v>
    <v>       0.10000000       0.30000001       0.25853757 </v>
    <v>       0.10000000       0.30000001       0.33240544 </v>
    <v>       0.10000000       0.50000000       0.03693394 </v>
    <v>       0.10000000       0.50000000       0.11080182 </v>
    <v>       0.10000000       0.50000000       0.18466969 </v>
    <v>       0.10000000       0.50000000       0.25853757 </v>
    <v>       0.10000000       0.50000000       0.33240544 </v>
    <v>       0.10000000       0.69999999       0.03693394 </v>
    <v>       0.10000000       0.69999999       0.11080182 </v>
    <v>       0.10000000       0.69999999       0.18466969 </v>
    <v>       0.10000000       0.69999999       0.25853757 </v>
    <v>       0.10000000       0.69999999       0.33240544 </v>
    <v>       0.10000000       0.89999998       0.03693394 </v>
    <v>       0.10000000       0.89999998       0.11080182 </v>
    <v>       0.10000000       0.89999998       0.18466969 </v>
    <v>       0.10000000       0.89999998       0.25853757 </v>
    <v>       0.10000000       0.89999998       0.33240544 </v>
    <v>       0.30000001       0.10000000       0.03693394 </v>
    <v>       0.30000001       0.10000000       0.11080182 </v>
    <v>       0.30000001       0.10000000       0.18466969 </v>
    <v>       0.30000001       0.10000000       0.25853757 </v>
    <v>       0.30000001       0.10000000       0.33240544 </v>
    <v>       0.30000001       0.30000001       0.03693394 </v>
    <v>       0.30000001       0.30000001       0.11080182 </v>
    <v>       0.30000001       0.30000001       0.18466969 </v>
    <v>       0.30000001       0.30000001       0.25853757 </v>
    <v>       0.30000001       0.30000001       0.33240544 </v>
    <v>       0.30000001       0.50000000       0.03693394 </v>
    <v>       0.30000001       0.50000000       0.11080182 </v>
    <v>       0.30000001       0.50000000       0.18466969 </v>
    <v>       0.30000001       0.50000000       0.25853757 </v>
    <v>       0.30000001       0.50000000       0.33240544 </v>
    <v>       0.30000001       0.69999999       0.03693394 </v>
    <v>       0.30000001       0.69999999       0.11080182 </v>
    <v>       0.30000001       0.69999999       0.18466969 </v>
    <v>       0.30000001       0.69999999       0.25853757 </v>
    <v>       0.30000001       0.69999999       0.33240544 </v>
    <v>       0.30000001       0.89999998       0.03693394 </v>
    <v>       0.30000001       0.89999998       0.11080182 </v>
    <v>       0.30000001       0.89999998       0.18466969 </v>
    <v>       0.30000001       0.89999998       0.25853757 </v>
    <v>       0.30000001       0.89999998       0.33240544 </v>
    <v>       0.50000000       0.10000000       0.03693394 </v>
    <v>       0.50000000       0.10000000       0.11080182 </v>
    <v>       0.50000000       0.10000000       0.18466969 </v>
    <v>       0.50000000       0.10000000       0.25853757 </v>
    <v>       0.50000000       0.10000000       0.33240544 </v>
    <v>       0.50000000       0.30000001       0.03693394 </v>
    <v>       0.50000000       0.30000001       0.11080182 </v>
    <v>       0.50000000       0.30000001       0.18466969 </v>
    <v>       0.50000000       0.30000001       0.25853757 </v>
    <v>       0.50000000       0.30000001       0.33240544 </v>
    <v>       0.50000000       0.50000000       0.03693394 </v>
    <v>       0.50000000       0.50000000       0.11080182 </v>
    <v>       0.50000000       0.50000000       0.18466969 </v>
    <v>       0.50000000       0.50000000       0.25853757 </v>
    <v>       0.50000000       0.50000000       0.33240544 </v>
    <v>       0.50000000       0.69999999       0.03693394 </v>
    <v>       0.50000000       0.69999999       0.11080182 </v>
    <v>       0.50000000       0.69999999       0.18466969 </v>
    <v>       0.50000000       0.69999999       0.25853757 </v>
    <v>       0.50000000       0.69999999       0.33240544 </v>
    <v>       0.50000000       0.89999998       0.03693394 </v>
    <v>       0.50000000       0.89999998       0.11080182 </v>
    <v>       0.50000000       0.89999998       0.18466969 </v>
    <v>       0.50000000       0.89999998       0.25853757 </v>
    <v>       0.50000000       0.89999998       0.33240544 </v>
    <v>       0.69999999       0.10000000       0.03693394 </v>
    <v>       0.69999999       0.10000000       0.11080182 </v>
    <v>       0.69999999       0.10000000       0.18466969 </v>
    <v>       0.69999999       0.10000000       0.25853757 </v>
    <v>       0.69999999       0.10000000       0.33240544 </v>
    <v>       0.69999999       0.30000001       0.03693394 </v>
    <v>       0.69999999       0.30000001       0.11080182 </v>
    <v>       0.69999999       0.30000001       0.18466969 </v>
    <v>       0.69999999       0.30000001       0.25853757 </v>
    <v>       0.69999999       0.30000001       0.33240544 </v>
    <v>       0.69999999       0.50000000       0.03693394 </v>
    <v>       0.69999999       0.50000000       0.11080182 </v>
    <v>       0.69999999       0.50000000       0.18466969 </v>
    <v>       0.69999999       0.50000000       0.25853757 </v>
    <v>       0.69999999       0.50000000       0.33240544 </v>
    <v>       0.69999999       0.69999999       0.03693394 </v>
    <v>       0.69999999       0.69999999       0.11080182 </v>
    <v>       0.69999999       0.69999999       0.18466969 </v>
    <v>       0.69999999       0.69999999       0.25853757 </v>
    <v>       0.69999999       0.69999999       0.33240544 </v>
    <v>       0.69999999       0.89999998       0.03693394 </v>
    <v>       0.69999999       0.89999998       0.11080182 </v>
    <v>       0.69999999       0.89999998       0.18466969 </v>
    <v>       0.69999999       0.89999998       0.25853757 </v>
    <v>       0.69999999       0.89999998       0.33240544 </v>
    <v>       0.89999998       0.10000000       0.03693394 </v>
    <v>       0.89999998       0.10000000       0.11080182 </v>
    <v>       0.89999998       0.10000000       0.18466969 </v>
    <v>       0.89999998       0.10000000       0.25853757 </v>
    <v>       0.89999998       0.10000000       0.33240544 </v>
    <v>       0.89999998       0.30000001       0.03693394 </v>
    <v>       0.89999998       0.30000001       0.11080182 </v>
    <v>       0.89999998       0.30000001       0.18466969 </v>
    <v>       0.89999998       0.30000001       0.25853757 </v>
    <v>       0.89999998       0.30000001       0.33240544 </v>
[...]
       <r>     3.3406   298.0897  2066.7408 </r>
       <r>     3.4514   250.7138  2094.5170 </r>
       <r>     3.5622   197.4898  2116.3966 </r>
       <r>     3.6730   199.0675  2138.4509 </r>
       <r>     3.7838   228.0775  2163.7192 </r>
       <r>     3.8946   188.3898  2184.5906 </r>
       <r>     4.0053   150.1264  2201.2228 </r>
       <r>     4.1161   124.6232  2215.0296 </r>
       <r>     4.2269   147.1721  2231.3346 </r>
       <r>     4.3377    74.7281  2239.6136 </r>
       <r>     4.4485    39.7545  2244.0179 </r>
       <r>     4.5593    61.8288  2250.8678 </r>
       <r>     4.6701    56.2943  2257.1045 </r>
       <r>     4.7809    56.2119  2263.3322 </r>
       <r>     4.8917    31.2045  2266.7893 </r>
       <r>     5.0024     6.2826  2267.4853 </r>
       <r>     5.1132     4.5876  2267.9935 </r>
       <r>     5.2240    17.3834  2269.9194 </r>
       <r>     5.3348    20.7514  2272.2184 </r>
       <r>     5.4456    14.5137  2273.8264 </r>
       <r>     5.5564    36.8139  2277.9049 </r>
       <r>     5.6672    21.7501  2280.3146 </r>
       <r>     5.7780    19.1687  2282.4382 </r>
       <r>     5.8887    26.5241  2285.3768 </r>
       <r>     5.9995     1.1292  2285.5019 </r>
       <r>     6.1103    13.0207  2286.9444 </r>
       <r>     6.2211    30.3701  2290.3091 </r>
       <r>     6.3319    35.0999  2294.1978 </r>
       <r>     6.4427     2.9524  2294.5248 </r>
       <r>     6.5535    16.8674  2296.3936 </r>
       <r>     6.6643    10.1957  2297.5231 </r>
       <r>     6.7751    14.5210  2299.1319 </r>
       <r>     6.8858    16.4877  2300.9585 </r>
       <r>     6.9966    49.6829  2306.4628 </r>
       <r>     7.1074    31.3604  2309.9372 </r>
       <r>     7.2182     5.8810  2310.5887 </r>
       <r>     7.3290    26.5630  2313.5316 </r>
       <r>     7.4398    55.7383  2319.7067 </r>
       <r>     7.5506    17.0079  2321.5910 </r>
       <r>     7.6614    38.0065  2325.8017 </r>
       <r>     7.7721    49.2900  2331.2624 </r>
       <r>     7.8829    26.1336  2334.1577 </r>
       <r>     7.9937    77.4397  2342.7371 </r>
       <r>     8.1045   109.1827  2354.8333 </r>
       <r>     8.2153    39.1019  2359.1654 </r>
       <r>     8.3261    49.1279  2364.6081 </r>
       <r>     8.4369    34.8187  2368.4657 </r>
       <r>     8.5477    44.2960  2373.3731 </r>
       <r>     8.6585    92.4810  2383.6189 </r>
       <r>     8.7692    26.0675  2386.5069 </r>
       <r>     8.8800    39.3709  2390.8688 </r>
       <r>     8.9908    35.1341  2394.7612 </r>
       <r>     9.1016     3.1336  2395.1084 </r>
       <r>     9.2124    23.0091  2397.6575 </r>
       <r>     9.3232    16.5314  2399.4890 </r>
       <r>     9.4340     0.7196  2399.5687 </r>
       <r>     9.5448     1.6237  2399.7486 </r>
       <r>     9.6556     0.2998  2399.7818 </r>
       <r>     9.7663     1.9173  2399.9942 </r>
       <r>     9.8771     0.0521  2400.0000 </r>
       <r>     9.9879     0.0000  2400.0000 </r>
       <r>    10.0987     0.0000  2400.0000 </r>
       <r>    10.2095     0.0000  2400.0000 </r>
       <r>    10.3203     0.0000  2400.0000 </r>
       <r>    10.4311     0.0000  2400.0000 </r>
       <r>    10.5419     0.0000  2400.0000 </r>
       <r>    10.6526     0.0000  2400.0000 </r>
       <r>    10.7634     0.0000  2400.0000 </r>
       <r>    10.8742     0.0000  2400.0000 </r>
       <r>    10.9850     0.0000  2400.0000 </r>
       <r>    11.0958     0.0000  2400.0000 </r>
       <r>    11.2066     0.0000  2400.0000 </r>
      </set>
     </set>
    </array>
   </total>
  </dos>
 </calculation>
 <structure name="finalpos" >
  <crystal>
   <varray name="basis" >
    <v>      10.54150009       0.00000000       0.00000000 </v>
    <v>       5.27075005       9.12920687       0.00000000 </v>
    <v>       0.00000000       0.00000000      28.54150009 </v>
   </varray>
   <i name="volume">   2746.70653362 </i>
   <varray name="rec_basis" >
    <v>       0.09486316      -0.05476927       0.00000000 </v>
    <v>       0.00000000       0.10953854       0.00000000 </v>
    <v>       0.00000000       0.00000000       0.03503670 </v>
   </varray>
  </crystal>
  <varray name="positions" >
   <v>      -0.00000000      -0.00000000      -0.09865981 </v>
   <v>       0.00000000      -0.00000000       0.02037820 </v>
   <v>       0.00000000       0.00000000       0.14089065 </v>
   <v>       0.00000000       0.00000000       0.25533346 </v>
   <v>       0.00000000       0.00000000       0.36825900 </v>
   <v>      -0.00000000       0.20000000      -0.09865981 </v>
   <v>       0.00000000       0.20000000       0.02037820 </v>
   <v>       0.00000000       0.20000000       0.14089065 </v>
   <v>       0.00000000       0.20000000       0.25533346 </v>
   <v>       0.00000000       0.20000000       0.36825900 </v>
   <v>      -0.00000000       0.40000001      -0.09865981 </v>
   <v>      -0.00000000       0.40000001       0.02037820 </v>
   <v>       0.00000000       0.40000001       0.14089065 </v>
   <v>      -0.00000000       0.40000001       0.25533346 </v>
   <v>      -0.00000000       0.40000001       0.36825900 </v>
   <v>       0.00000000       0.60000002      -0.09865981 </v>
   <v>      -0.00000000       0.60000002       0.02037820 </v>
   <v>       0.00000000       0.60000002       0.14089065 </v>
   <v>       0.00000000       0.60000002       0.25533346 </v>
   <v>      -0.00000000       0.60000002       0.36825900 </v>
   <v>      -0.00000000       0.80000001      -0.09865981 </v>
   <v>      -0.00000000       0.80000001       0.02037820 </v>
   <v>       0.00000000       0.80000001       0.14089065 </v>
   <v>      -0.00000000       0.80000001       0.25533346 </v>
   <v>       0.00000000       0.80000001       0.36825900 </v>
   <v>       0.20000000       0.00000000      -0.09865981 </v>
   <v>       0.20000000      -0.00000000       0.02037820 </v>
   <v>       0.20000000      -0.00000000       0.14089065 </v>
   <v>       0.20000000       0.00000000       0.25533346 </v>
   <v>       0.20000000       0.00000000       0.36825900 </v>
   <v>       0.20000000       0.20000000      -0.09865981 </v>
   <v>       0.20000000       0.20000000       0.02037820 </v>
   <v>       0.20000000       0.20000000       0.14089065 </v>
   <v>       0.20000000       0.20000000       0.25533346 </v>
   <v>       0.20000000       0.20000000       0.36825900 </v>
   <v>       0.20000000       0.40000001      -0.09865981 </v>
   <v>       0.20000000       0.40000001       0.02037820 </v>
   <v>       0.20000000       0.40000001       0.14089065 </v>
   <v>       0.20000000       0.40000001       0.25533346 </v>
   <v>       0.20000000       0.40000001       0.36825900 </v>
   <v>       0.20000000       0.60000002      -0.09865981 </v>
   <v>       0.20000000       0.60000002       0.02037820 </v>
   <v>       0.20000000       0.60000002       0.14089065 </v>
   <v>       0.20000000       0.60000002       0.25533346 </v>
   <v>       0.20000000       0.60000002       0.36825900 </v>
   <v>       0.20000000       0.80000001      -0.09865981 </v>
   <v>       0.20000000       0.80000001       0.02037820 </v>
   <v>       0.20000000       0.80000001       0.14089065 </v>
   <v>       0.20000000       0.80000001       0.25533346 </v>
   <v>       0.20000000       0.80000001       0.36825900 </v>
   <v>       0.40000001      -0.00000000      -0.09865981 </v>
   <v>       0.40000001      -0.00000000       0.02037820 </v>
   <v>       0.40000001       0.00000000       0.14089065 </v>
   <v>       0.40000001       0.00000000       0.25533346 </v>
   <v>       0.40000001      -0.00000000       0.36825900 </v>
   <v>       0.40000001       0.20000000      -0.09865981 </v>
   <v>       0.40000001       0.20000000       0.02037820 </v>
   <v>       0.40000001       0.20000000       0.14089065 </v>
   <v>       0.40000001       0.20000000       0.25533346 </v>
   <v>       0.40000001       0.20000000       0.36825900 </v>
   <v>       0.40000001       0.40000001      -0.09865981 </v>
   <v>       0.40000001       0.40000001       0.02037820 </v>
   <v>       0.40000001       0.40000001       0.14089065 </v>
   <v>       0.40000001       0.40000001       0.25533346 </v>
   <v>       0.40000001       0.40000001       0.36825900 </v>
   <v>       0.40000001       0.60000002      -0.09865981 </v>
   <v>       0.40000001       0.60000002       0.02037820 </v>
   <v>       0.40000001       0.60000002       0.14089065 </v>
   <v>       0.40000001       0.60000002       0.25533346 </v>
   <v>       0.40000001       0.60000002       0.36825900 </v>
   <v>       0.40000001       0.80000001      -0.09865981 </v>
   <v>       0.40000001       0.80000001       0.02037820 </v>
   <v>       0.40000001       0.80000001       0.14089065 </v>
   <v>       0.40000001       0.80000001       0.25533346 </v>
   <v>       0.40000001       0.80000001       0.36825900 </v>
   <v>       0.60000002      -0.00000000      -0.09865981 </v>
   <v>       0.60000002       0.00000000       0.02037820 </v>
   <v>       0.60000002      -0.00000000       0.14089065 </v>
   <v>       0.60000002       0.00000000       0.25533346 </v>
   <v>       0.60000002       0.00000000       0.36825900 </v>
   <v>       0.60000002       0.20000000      -0.09865981 </v>
   <v>       0.60000002       0.20000000       0.02037820 </v>
   <v>       0.60000002       0.20000000       0.14089065 </v>
   <v>       0.60000002       0.20000000       0.25533346 </v>
   <v>       0.60000002       0.20000000       0.36825900 </v>
   <v>       0.60000002       0.40000001      -0.09865981 </v>
   <v>       0.60000002       0.40000001       0.02037820 </v>
   <v>       0.60000002       0.40000001       0.14089065 </v>
   <v>       0.60000002       0.40000001       0.25533346 </v>
   <v>       0.60000002       0.40000001       0.36825900 </v>
   <v>       0.60000002       0.60000002      -0.09865981 </v>
   <v>       0.60000002       0.60000002       0.02037820 </v>
   <v>       0.60000002       0.60000002       0.14089065 </v>
   <v>       0.60000002       0.60000002       0.25533346 </v>
   <v>       0.60000002       0.60000002       0.36825900 </v>
   <v>       0.60000002       0.80000001      -0.09865981 </v>
   <v>       0.60000002       0.80000001       0.02037820 </v>
   <v>       0.60000002       0.80000001       0.14089065 </v>
   <v>       0.60000002       0.80000001       0.25533346 </v>
   <v>       0.60000002       0.80000001       0.36825900 </v>
   <v>       0.80000001       0.00000000      -0.09865981 </v>
   <v>       0.80000001       0.00000000       0.02037820 </v>
   <v>       0.80000001      -0.00000000       0.14089065 </v>
   <v>       0.80000001       0.00000000       0.25533346 </v>
   <v>       0.80000001       0.00000000       0.36825900 </v>
   <v>       0.80000001       0.20000000      -0.09865981 </v>
   <v>       0.80000001       0.20000000       0.02037820 </v>
   <v>       0.80000001       0.20000000       0.14089065 </v>
   <v>       0.80000001       0.20000000       0.25533346 </v>
   <v>       0.80000001       0.20000000       0.36825900 </v>
   <v>       0.80000001       0.40000001      -0.09865981 </v>
   <v>       0.80000001       0.40000001       0.02037820 </v>
   <v>       0.80000001       0.40000001       0.14089065 </v>
   <v>       0.80000001       0.40000001       0.25533346 </v>
   <v>       0.80000001       0.40000001       0.36825900 </v>
   <v>       0.80000001       0.60000002      -0.09865981 </v>
   <v>       0.80000001       0.60000002       0.02037820 </v>
   <v>       0.80000001       0.60000002       0.14089065 </v>
   <v>       0.80000001       0.60000002       0.25533346 </v>
   <v>       0.80000001       0.60000002       0.36825900 </v>
   <v>       0.80000001       0.80000001      -0.09865981 </v>
   <v>       0.80000001       0.80000001       0.02037820 </v>
   <v>       0.80000001       0.80000001       0.14089065 </v>
   <v>       0.80000001       0.80000001       0.25533346 </v>
   <v>       0.80000001       0.80000001       0.36825900 </v>
   <v>       0.10000000       0.10000000      -0.03849109 </v>
   <v>       0.10000000       0.10000000       0.08133869 </v>
   <v>       0.10000000       0.10000000       0.19924972 </v>
   <v>       0.10000000       0.10000000       0.31034165 </v>
   <v>       0.10000000       0.10000000       0.42338676 </v>
   <v>       0.10000000       0.30000001      -0.03849109 </v>
   <v>       0.10000000       0.30000001       0.08133869 </v>
   <v>       0.10000000       0.30000001       0.19924972 </v>
   <v>       0.10000000       0.30000001       0.31034165 </v>
   <v>       0.10000000       0.30000001       0.42338676 </v>
   <v>       0.10000000       0.50000000      -0.03849109 </v>
   <v>       0.10000000       0.50000000       0.08133869 </v>
   <v>       0.10000000       0.50000000       0.19924972 </v>
   <v>       0.10000000       0.50000000       0.31034165 </v>
   <v>       0.10000000       0.50000000       0.42338676 </v>
   <v>       0.10000000       0.69999999      -0.03849109 </v>
   <v>       0.10000000       0.69999999       0.08133869 </v>
   <v>       0.10000000       0.69999999       0.19924972 </v>
   <v>       0.10000000       0.69999999       0.31034165 </v>
   <v>       0.10000000       0.69999999       0.42338676 </v>
   <v>       0.10000000       0.89999998      -0.03849109 </v>
   <v>       0.10000000       0.89999998       0.08133869 </v>
   <v>       0.10000000       0.89999998       0.19924972 </v>
   <v>       0.10000000       0.89999998       0.31034165 </v>
   <v>       0.10000000       0.89999998       0.42338676 </v>
   <v>       0.30000001       0.10000000      -0.03849109 </v>
   <v>       0.30000001       0.10000000       0.08133869 </v>
   <v>       0.30000001       0.10000000       0.19924972 </v>
   <v>       0.30000001       0.10000000       0.31034165 </v>
   <v>       0.30000001       0.10000000       0.42338676 </v>
   <v>       0.30000001       0.30000001      -0.03849109 </v>
   <v>       0.30000001       0.30000001       0.08133869 </v>
   <v>       0.30000001       0.30000001       0.19924972 </v>
   <v>       0.30000001       0.30000001       0.31034165 </v>
   <v>       0.30000001       0.30000001       0.42338676 </v>
   <v>       0.30000001       0.50000000      -0.03849109 </v>
   <v>       0.30000001       0.50000000       0.08133869 </v>
   <v>       0.30000001       0.50000000       0.19924972 </v>
   <v>       0.30000001       0.50000000       0.31034165 </v>
   <v>       0.30000001       0.50000000       0.42338676 </v>
   <v>       0.30000001       0.69999999      -0.03849109 </v>
   <v>       0.30000001       0.69999999       0.08133869 </v>
   <v>       0.30000001       0.69999999       0.19924972 </v>
   <v>       0.30000001       0.69999999       0.31034165 </v>
   <v>       0.30000001       0.69999999       0.42338676 </v>
   <v>       0.30000001       0.89999998      -0.03849109 </v>
   <v>       0.30000001       0.89999998       0.08133869 </v>
   <v>       0.30000001       0.89999998       0.19924972 </v>
   <v>       0.30000001       0.89999998       0.31034165 </v>
   <v>       0.30000001       0.89999998       0.42338676 </v>
   <v>       0.50000000       0.10000000      -0.03849109 </v>
   <v>       0.50000000       0.10000000       0.08133869 </v>
   <v>       0.50000000       0.10000000       0.19924972 </v>
   <v>       0.50000000       0.10000000       0.31034165 </v>
   <v>       0.50000000       0.10000000       0.42338676 </v>
   <v>       0.50000000       0.30000001      -0.03849109 </v>
   <v>       0.50000000       0.30000001       0.08133869 </v>
   <v>       0.50000000       0.30000001       0.19924972 </v>
   <v>       0.50000000       0.30000001       0.31034165 </v>
   <v>       0.50000000       0.30000001       0.42338676 </v>
   <v>       0.50000000       0.50000000      -0.03849109 </v>
   <v>       0.50000000       0.50000000       0.08133869 </v>
   <v>       0.50000000       0.50000000       0.19924972 </v>
   <v>       0.50000000       0.50000000       0.31034165 </v>
   <v>       0.50000000       0.50000000       0.42338676 </v>
   <v>       0.50000000       0.69999999      -0.03849109 </v>
   <v>       0.50000000       0.69999999       0.08133869 </v>
   <v>       0.50000000       0.69999999       0.19924972 </v>
   <v>       0.50000000       0.69999999       0.31034165 </v>
   <v>       0.50000000       0.69999999       0.42338676 </v>
   <v>       0.50000000       0.89999998      -0.03849109 </v>
   <v>       0.50000000       0.89999998       0.08133869 </v>
   <v>       0.50000000       0.89999998       0.19924972 </v>
   <v>       0.50000000       0.89999998       0.31034165 </v>
   <v>       0.50000000       0.89999998       0.42338676 </v>
   <v>       0.69999999       0.10000000      -0.03849109 </v>
   <v>       0.69999999       0.10000000       0.08133869 </v>
   <v>       0.69999999       0.10000000       0.19924972 </v>
   <v>       0.69999999       0.10000000       0.31034165 </v>
   <v>       0.69999999       0.10000000       0.42338676 </v>
   <v>       0.69999999       0.30000001      -0.03849109 </v>
   <v>       0.69999999       0.30000001       0.08133869 </v>
   <v>       0.69999999       0.30000001       0.19924972 </v>
   <v>       0.69999999       0.30000001       0.31034165 </v>
   <v>       0.69999999       0.30000001       0.42338676 </v>
   <v>       0.69999999       0.50000000      -0.03849109 </v>
   <v>       0.69999999       0.50000000       0.08133869 </v>
   <v>       0.69999999       0.50000000       0.19924972 </v>
   <v>       0.69999999       0.50000000       0.31034165 </v>
   <v>       0.69999999       0.50000000       0.42338676 </v>
   <v>       0.69999999       0.69999999      -0.03849109 </v>
   <v>       0.69999999       0.69999999       0.08133869 </v>
   <v>       0.69999999       0.69999999       0.19924972 </v>
   <v>       0.69999999       0.69999999       0.31034165 </v>
   <v>       0.69999999       0.69999999       0.42338676 </v>
   <v>       0.69999999       0.89999998      -0.03849109 </v>
   <v>       0.69999999       0.89999998       0.08133869 </v>
   <v>       0.69999999       0.89999998       0.19924972 </v>
   <v>       0.69999999       0.89999998       0.31034165 </v>
   <v>       0.69999999       0.89999998       0.42338676 </v>
   <v>       0.89999998       0.10000000      -0.03849109 </v>
   <v>       0.89999998       0.10000000       0.08133869 </v>
   <v>       0.89999998       0.10000000       0.19924972 </v>
   <v>       0.89999998       0.10000000       0.31034165 </v>
   <v>       0.89999998       0.10000000       0.42338676 </v>
   <v>       0.89999998       0.30000001      -0.03849109 </v>
   <v>       0.89999998       0.30000001       0.08133869 </v>
   <v>       0.89999998       0.30000001       0.19924972 </v>
   <v>       0.89999998       0.30000001       0.31034165 </v>
   <v>       0.89999998       0.30000001       0.42338676 </v>
   <v>       0.89999998       0.50000000      -0.03849109 </v>
   <v>       0.89999998       0.50000000       0.08133869 </v>
   <v>       0.89999998       0.50000000       0.19924972 </v>
   <v>       0.89999998       0.50000000       0.31034165 </v>
   <v>       0.89999998       0.50000000       0.42338676 </v>
   <v>       0.89999998       0.69999999      -0.03849109 </v>
   <v>       0.89999998       0.69999999       0.08133869 </v>
   <v>       0.89999998       0.69999999       0.19924972 </v>
   <v>       0.89999998       0.69999999       0.31034165 </v>
   <v>       0.89999998       0.69999999       0.42338676 </v>
   <v>       0.89999998       0.89999998      -0.03849109 </v>
   <v>       0.89999998       0.89999998       0.08133869 </v>
   <v>       0.89999998       0.89999998       0.19924972 </v>
   <v>       0.89999998       0.89999998       0.31034165 </v>
   <v>       0.89999998       0.89999998       0.42338676 </v>
  </varray>
 </structure>
</modeling>
