NiAl                                    
            1
    12.649858    0.000000    0.000000
     0.000000   12.649858    0.000000
     0.000000    0.000000   25.649858
   Ni   O 
   108   108
Direct configuration=     1
   0.00000000  0.00000000  0.00000000
   0.00000000  0.00000000  0.16439154
   0.00000000  0.00000000  0.32878307
   0.00000000  0.33333334  0.00000000
   0.00000000  0.33333334  0.16439154
   0.00000000  0.33333334  0.32878307
   0.00000000  0.66666669  0.00000000
   0.00000000  0.66666669  0.16439154
   0.00000000  0.66666669  0.32878307
   0.33333334  0.00000000  0.00000000
   0.33333334  0.00000000  0.16439154
   0.33333334  0.00000000  0.32878307
   0.33333334  0.33333334  0.00000000
   0.33333334  0.33333334  0.16439154
   0.33333334  0.33333334  0.32878307
   0.33333334  0.66666669  0.00000000
   0.33333334  0.66666669  0.16439154
   0.33333334  0.66666669  0.32878307
   0.66666669  0.00000000  0.00000000
   0.66666669  0.00000000  0.16439154
   0.66666669  0.00000000  0.32878307
   0.66666669  0.33333334  0.00000000
   0.66666669  0.33333334  0.16439154
   0.66666669  0.33333334  0.32878307
   0.66666669  0.66666669  0.00000000
   0.66666669  0.66666669  0.16439154
   0.66666669  0.66666669  0.32878307
   0.00000000  0.16666667  0.08219577
   0.00000000  0.16666667  0.24658730
   0.00000000  0.16666667  0.41097882
   0.00000000  0.50000000  0.08219577
   0.00000000  0.50000000  0.24658730
   0.00000000  0.50000000  0.41097882
   0.00000000  0.83333331  0.08219577
   0.00000000  0.83333331  0.24658730
   0.00000000  0.83333331  0.41097882
   0.33333334  0.16666667  0.08219577
   0.33333334  0.16666667  0.24658730
   0.33333334  0.16666667  0.41097882
   0.33333334  0.50000000  0.08219577
   0.33333334  0.50000000  0.24658730
   0.33333334  0.50000000  0.41097882
   0.33333334  0.83333331  0.08219577
   0.33333334  0.83333331  0.24658730
   0.33333334  0.83333331  0.41097882
   0.66666669  0.16666667  0.08219577
   0.66666669  0.16666667  0.24658730
   0.66666669  0.16666667  0.41097882
   0.66666669  0.50000000  0.08219577
   0.66666669  0.50000000  0.24658730
   0.66666669  0.50000000  0.41097882
   0.66666669  0.83333331  0.08219577
   0.66666669  0.83333331  0.24658730
   0.66666669  0.83333331  0.41097882
   0.16666667  0.00000000  0.08219577
   0.16666667  0.00000000  0.24658730
   0.16666667  0.00000000  0.41097882
   0.16666667  0.33333334  0.08219577
   0.16666667  0.33333334  0.24658730
   0.16666667  0.33333334  0.41097882
   0.16666667  0.66666669  0.08219577
   0.16666667  0.66666669  0.24658730
   0.16666667  0.66666669  0.41097882
   0.50000000  0.00000000  0.08219577
   0.50000000  0.00000000  0.24658730
   0.50000000  0.00000000  0.41097882
   0.50000000  0.33333334  0.08219577
   0.50000000  0.33333334  0.24658730
   0.50000000  0.33333334  0.41097882
   0.50000000  0.66666669  0.08219577
   0.50000000  0.66666669  0.24658730
   0.50000000  0.66666669  0.41097882
   0.83333331  0.00000000  0.08219577
   0.83333331  0.00000000  0.24658730
   0.83333331  0.00000000  0.41097882
   0.83333331  0.33333334  0.08219577
   0.83333331  0.33333334  0.24658730
   0.83333331  0.33333334  0.41097882
   0.83333331  0.66666669  0.08219577
   0.83333331  0.66666669  0.24658730
   0.83333331  0.66666669  0.41097882
   0.16666667  0.16666667  0.00000000
   0.16666667  0.16666667  0.16439154
   0.16666667  0.16666667  0.32878307
   0.16666667  0.50000000  0.00000000
   0.16666667  0.50000000  0.16439154
   0.16666667  0.50000000  0.32878307
   0.16666667  0.83333331  0.00000000
   0.16666667  0.83333331  0.16439154
   0.16666667  0.83333331  0.32878307
   0.50000000  0.16666667  0.00000000
   0.50000000  0.16666667  0.16439154
   0.50000000  0.16666667  0.32878307
   0.50000000  0.50000000  0.00000000
   0.50000000  0.50000000  0.16439154
   0.50000000  0.50000000  0.32878307
   0.50000000  0.83333331  0.00000000
   0.50000000  0.83333331  0.16439154
   0.50000000  0.83333331  0.32878307
   0.83333331  0.16666667  0.00000000
   0.83333331  0.16666667  0.16439154
   0.83333331  0.16666667  0.32878307
   0.83333331  0.50000000  0.00000000
   0.83333331  0.50000000  0.16439154
   0.83333331  0.50000000  0.32878307
   0.83333331  0.83333331  0.00000000
   0.83333331  0.83333331  0.16439154
   0.83333331  0.83333331  0.32878307
   0.16666667  0.00000000  0.00000000
   0.16666667  0.00000000  0.16439154
   0.16666667  0.00000000  0.32878307
   0.16666667  0.33333334  0.00000000
   0.16666667  0.33333334  0.16439154
   0.16666667  0.33333334  0.32878307
   0.16666667  0.66666669  0.00000000
   0.16666667  0.66666669  0.16439154
   0.16666667  0.66666669  0.32878307
   0.50000000  0.00000000  0.00000000
   0.50000000  0.00000000  0.16439154
   0.50000000  0.00000000  0.32878307
   0.50000000  0.33333334  0.00000000
   0.50000000  0.33333334  0.16439154
   0.50000000  0.33333334  0.32878307
   0.50000000  0.66666669  0.00000000
   0.50000000  0.66666669  0.16439154
   0.50000000  0.66666669  0.32878307
   0.83333331  0.00000000  0.00000000
   0.83333331  0.00000000  0.16439154
   0.83333331  0.00000000  0.32878307
   0.83333331  0.33333334  0.00000000
   0.83333331  0.33333334  0.16439154
   0.83333331  0.33333334  0.32878307
   0.83333331  0.66666669  0.00000000
   0.83333331  0.66666669  0.16439154
   0.83333331  0.66666669  0.32878307
   0.16666667  0.16666667  0.08219577
   0.16666667  0.16666667  0.24658730
   0.16666667  0.16666667  0.41097882
   0.16666667  0.50000000  0.08219577
   0.16666667  0.50000000  0.24658730
   0.16666667  0.50000000  0.41097882
   0.16666667  0.83333331  0.08219577
   0.16666667  0.83333331  0.24658730
   0.16666667  0.83333331  0.41097882
   0.50000000  0.16666667  0.08219577
   0.50000000  0.16666667  0.24658730
   0.50000000  0.16666667  0.41097882
   0.50000000  0.50000000  0.08219577
   0.50000000  0.50000000  0.24658730
   0.50000000  0.50000000  0.41097882
   0.50000000  0.83333331  0.08219577
   0.50000000  0.83333331  0.24658730
   0.50000000  0.83333331  0.41097882
   0.83333331  0.16666667  0.08219577
   0.83333331  0.16666667  0.24658730
   0.83333331  0.16666667  0.41097882
   0.83333331  0.50000000  0.08219577
   0.83333331  0.50000000  0.24658730
   0.83333331  0.50000000  0.41097882
   0.83333331  0.83333331  0.08219577
   0.83333331  0.83333331  0.24658730
   0.83333331  0.83333331  0.41097882
   0.00000000  0.00000000  0.08219577
   0.00000000  0.00000000  0.24658730
   0.00000000  0.00000000  0.41097882
   0.00000000  0.33333334  0.08219577
   0.00000000  0.33333334  0.24658730
   0.00000000  0.33333334  0.41097882
   0.00000000  0.66666669  0.08219577
   0.00000000  0.66666669  0.24658730
   0.00000000  0.66666669  0.41097882
   0.33333334  0.00000000  0.08219577
   0.33333334  0.00000000  0.24658730
   0.33333334  0.00000000  0.41097882
   0.33333334  0.33333334  0.08219577
   0.33333334  0.33333334  0.24658730
   0.33333334  0.33333334  0.41097882
   0.33333334  0.66666669  0.08219577
   0.33333334  0.66666669  0.24658730
   0.33333334  0.66666669  0.41097882
   0.66666669  0.00000000  0.08219577
   0.66666669  0.00000000  0.24658730
   0.66666669  0.00000000  0.41097882
   0.66666669  0.33333334  0.08219577
   0.66666669  0.33333334  0.24658730
   0.66666669  0.33333334  0.41097882
   0.66666669  0.66666669  0.08219577
   0.66666669  0.66666669  0.24658730
   0.66666669  0.66666669  0.41097882
   0.00000000  0.16666667  0.00000000
   0.00000000  0.16666667  0.16439154
   0.00000000  0.16666667  0.32878307
   0.00000000  0.50000000  0.00000000
   0.00000000  0.50000000  0.16439154
   0.00000000  0.50000000  0.32878307
   0.00000000  0.83333331  0.00000000
   0.00000000  0.83333331  0.16439154
   0.00000000  0.83333331  0.32878307
   0.33333334  0.16666667  0.00000000
   0.33333334  0.16666667  0.16439154
   0.33333334  0.16666667  0.32878307
   0.33333334  0.50000000  0.00000000
   0.33333334  0.50000000  0.16439154
   0.33333334  0.50000000  0.32878307
   0.33333334  0.83333331  0.00000000
   0.33333334  0.83333331  0.16439154
   0.33333334  0.83333331  0.32878307
   0.66666669  0.16666667  0.00000000
   0.66666669  0.16666667  0.16439154
   0.66666669  0.16666667  0.32878307
   0.66666669  0.50000000  0.00000000
   0.66666669  0.50000000  0.16439154
   0.66666669  0.50000000  0.32878307
   0.66666669  0.83333331  0.00000000
   0.66666669  0.83333331  0.16439154
   0.66666669  0.83333331  0.32878307
Direct configuration=     2
  -0.00000000 -0.00000000 -0.00042894
  -0.00000000 -0.00000000  0.16425879
  -0.00000000 -0.00000000  0.32903201
  -0.00000000  0.33333334 -0.00042894
   0.00000000  0.33333334  0.16425879
  -0.00000000  0.33333334  0.32903201
  -0.00000000  0.66666669 -0.00042894
  -0.00000000  0.66666669  0.16425879
  -0.00000000  0.66666669  0.32903201
   0.33333334  0.00000000 -0.00042894
   0.33333334  0.00000000  0.16425879
   0.33333334  0.00000000  0.32903201
   0.33333334  0.33333334 -0.00042894
   0.33333334  0.33333334  0.16425879
   0.33333334  0.33333334  0.32903201
   0.33333334  0.66666669 -0.00042894
   0.33333334  0.66666669  0.16425879
   0.33333334  0.66666669  0.32903201
   0.66666669 -0.00000000 -0.00042894
   0.66666669  0.00000000  0.16425879
   0.66666669 -0.00000000  0.32903201
   0.66666669  0.33333334 -0.00042894
   0.66666669  0.33333334  0.16425879
   0.66666669  0.33333334  0.32903201
   0.66666669  0.66666669 -0.00042894
   0.66666669  0.66666669  0.16425879
   0.66666669  0.66666669  0.32903201
  -0.00000000  0.16666667  0.08194683
   0.00000000  0.16666667  0.24672004
  -0.00000000  0.16666667  0.41140775
  -0.00000000  0.50000000  0.08194683
   0.00000000  0.50000000  0.24672004
  -0.00000000  0.50000000  0.41140775
  -0.00000000  0.83333331  0.08194683
  -0.00000000  0.83333331  0.24672004
  -0.00000000  0.83333331  0.41140775
   0.33333334  0.16666667  0.08194683
   0.33333334  0.16666667  0.24672004
   0.33333334  0.16666667  0.41140775
   0.33333334  0.50000000  0.08194683
   0.33333334  0.50000000  0.24672004
   0.33333334  0.50000000  0.41140775
   0.33333334  0.83333331  0.08194683
   0.33333334  0.83333331  0.24672004
   0.33333334  0.83333331  0.41140775
   0.66666669  0.16666667  0.08194683
   0.66666669  0.16666667  0.24672004
   0.66666669  0.16666667  0.41140775
   0.66666669  0.50000000  0.08194683
   0.66666669  0.50000000  0.24672004
   0.66666669  0.50000000  0.41140775
   0.66666669  0.83333331  0.08194683
   0.66666669  0.83333331  0.24672004
   0.66666669  0.83333331  0.41140775
   0.16666667  0.00000000  0.08194683
   0.16666667 -0.00000000  0.24672004
   0.16666667  0.00000000  0.41140775
   0.16666667  0.33333334  0.08194683
   0.16666667  0.33333334  0.24672004
   0.16666667  0.33333334  0.41140775
   0.16666667  0.66666669  0.08194683
   0.16666667  0.66666669  0.24672004
   0.16666667  0.66666669  0.41140775
   0.50000000  0.00000000  0.08194683
   0.50000000 -0.00000000  0.24672004
   0.50000000  0.00000000  0.41140775
   0.50000000  0.33333334  0.08194683
   0.50000000  0.33333334  0.24672004
   0.50000000  0.33333334  0.41140775
   0.50000000  0.66666669  0.08194683
   0.50000000  0.66666669  0.24672004
   0.50000000  0.66666669  0.41140775
   0.83333331  0.00000000  0.08194683
   0.83333331  0.00000000  0.24672004
   0.83333331 -0.00000000  0.41140775
   0.83333331  0.33333334  0.08194683
   0.83333331  0.33333334  0.24672004
   0.83333331  0.33333334  0.41140775
   0.83333331  0.66666669  0.08194683
   0.83333331  0.66666669  0.24672004
   0.83333331  0.66666669  0.41140775
   0.16666667  0.16666667 -0.00042894
   0.16666667  0.16666667  0.16425879
   0.16666667  0.16666667  0.32903201
   0.16666667  0.50000000 -0.00042894
   0.16666667  0.50000000  0.16425879
   0.16666667  0.50000000  0.32903201
   0.16666667  0.83333331 -0.00042894
   0.16666667  0.83333331  0.16425879
   0.16666667  0.83333331  0.32903201
   0.50000000  0.16666667 -0.00042894
   0.50000000  0.16666667  0.16425879
   0.50000000  0.16666667  0.32903201
   0.50000000  0.50000000 -0.00042894
   0.50000000  0.50000000  0.16425879
   0.50000000  0.50000000  0.32903201
   0.50000000  0.83333331 -0.00042894
   0.50000000  0.83333331  0.16425879
   0.50000000  0.83333331  0.32903201
   0.83333331  0.16666667 -0.00042894
   0.83333331  0.16666667  0.16425879
   0.83333331  0.16666667  0.32903201
   0.83333331  0.50000000 -0.00042894
   0.83333331  0.50000000  0.16425879
   0.83333331  0.50000000  0.32903201
   0.83333331  0.83333331 -0.00042894
   0.83333331  0.83333331  0.16425879
   0.83333331  0.83333331  0.32903201
   0.16666667 -0.00000000  0.00057273
   0.16666667 -0.00000000  0.16428196
   0.16666667 -0.00000000  0.32809284
   0.16666667  0.33333334  0.00057273
   0.16666667  0.33333334  0.16428196
   0.16666667  0.33333334  0.32809284
   0.16666667  0.66666669  0.00057273
   0.16666667  0.66666669  0.16428196
   0.16666667  0.66666669  0.32809284
   0.50000000 -0.00000000  0.00057273
   0.50000000  0.00000000  0.16428196
   0.50000000  0.00000000  0.32809284
   0.50000000  0.33333334  0.00057273
   0.50000000  0.33333334  0.16428196
   0.50000000  0.33333334  0.32809284
   0.50000000  0.66666669  0.00057273
   0.50000000  0.66666669  0.16428196
   0.50000000  0.66666669  0.32809284
   0.83333331  0.00000000  0.00057273
   0.83333331 -0.00000000  0.16428196
   0.83333331  0.00000000  0.32809284
   0.83333331  0.33333334  0.00057273
   0.83333331  0.33333334  0.16428196
   0.83333331  0.33333334  0.32809284
   0.83333331  0.66666669  0.00057273
   0.83333331  0.66666669  0.16428196
   0.83333331  0.66666669  0.32809284
   0.16666667  0.16666667  0.08288600
   0.16666667  0.16666667  0.24669687
   0.16666667  0.16666667  0.41040609
   0.16666667  0.50000000  0.08288600
   0.16666667  0.50000000  0.24669687
   0.16666667  0.50000000  0.41040609
   0.16666667  0.83333331  0.08288600
   0.16666667  0.83333331  0.24669687
   0.16666667  0.83333331  0.41040609
   0.50000000  0.16666667  0.08288600
   0.50000000  0.16666667  0.24669687
   0.50000000  0.16666667  0.41040609
   0.50000000  0.50000000  0.08288600
   0.50000000  0.50000000  0.24669687
   0.50000000  0.50000000  0.41040609
   0.50000000  0.83333331  0.08288600
   0.50000000  0.83333331  0.24669687
   0.50000000  0.83333331  0.41040609
   0.83333331  0.16666667  0.08288600
   0.83333331  0.16666667  0.24669687
   0.83333331  0.16666667  0.41040609
   0.83333331  0.50000000  0.08288600
   0.83333331  0.50000000  0.24669687
   0.83333331  0.50000000  0.41040609
   0.83333331  0.83333331  0.08288600
   0.83333331  0.83333331  0.24669687
   0.83333331  0.83333331  0.41040609
   0.00000000 -0.00000000  0.08288600
  -0.00000000  0.00000000  0.24669687
  -0.00000000  0.00000000  0.41040609
   0.00000000  0.33333334  0.08288600
  -0.00000000  0.33333334  0.24669687
   0.00000000  0.33333334  0.41040609
   0.00000000  0.66666669  0.08288600
   0.00000000  0.66666669  0.24669687
   0.00000000  0.66666669  0.41040609
   0.33333334 -0.00000000  0.08288600
   0.33333334 -0.00000000  0.24669687
   0.33333334 -0.00000000  0.41040609
   0.33333334  0.33333334  0.08288600
   0.33333334  0.33333334  0.24669687
   0.33333334  0.33333334  0.41040609
   0.33333334  0.66666669  0.08288600
   0.33333334  0.66666669  0.24669687
   0.33333334  0.66666669  0.41040609
   0.66666669  0.00000000  0.08288600
   0.66666669  0.00000000  0.24669687
   0.66666669  0.00000000  0.41040609
   0.66666669  0.33333334  0.08288600
   0.66666669  0.33333334  0.24669687
   0.66666669  0.33333334  0.41040609
   0.66666669  0.66666669  0.08288600
   0.66666669  0.66666669  0.24669687
   0.66666669  0.66666669  0.41040609
  -0.00000000  0.16666667  0.00057273
  -0.00000000  0.16666667  0.16428196
   0.00000000  0.16666667  0.32809284
  -0.00000000  0.50000000  0.00057273
  -0.00000000  0.50000000  0.16428196
   0.00000000  0.50000000  0.32809284
   0.00000000  0.83333331  0.00057273
  -0.00000000  0.83333331  0.16428196
   0.00000000  0.83333331  0.32809284
   0.33333334  0.16666667  0.00057273
   0.33333334  0.16666667  0.16428196
   0.33333334  0.16666667  0.32809284
   0.33333334  0.50000000  0.00057273
   0.33333334  0.50000000  0.16428196
   0.33333334  0.50000000  0.32809284
   0.33333334  0.83333331  0.00057273
   0.33333334  0.83333331  0.16428196
   0.33333334  0.83333331  0.32809284
   0.66666669  0.16666667  0.00057273
   0.66666669  0.16666667  0.16428196
   0.66666669  0.16666667  0.32809284
   0.66666669  0.50000000  0.00057273
   0.66666669  0.50000000  0.16428196
   0.66666669  0.50000000  0.32809284
   0.66666669  0.83333331  0.00057273
   0.66666669  0.83333331  0.16428196
   0.66666669  0.83333331  0.32809284
Direct configuration=     3
  -0.00000000 -0.00000000 -0.00171575
  -0.00000000 -0.00000000  0.16386056
  -0.00000000 -0.00000000  0.32977883
  -0.00000000  0.33333334 -0.00171575
   0.00000000  0.33333334  0.16386056
  -0.00000000  0.33333334  0.32977883
  -0.00000000  0.66666669 -0.00171575
  -0.00000000  0.66666669  0.16386056
  -0.00000000  0.66666669  0.32977883
   0.33333334  0.00000000 -0.00171575
   0.33333334  0.00000000  0.16386056
   0.33333334  0.00000000  0.32977883
   0.33333334  0.33333334 -0.00171575
   0.33333334  0.33333334  0.16386056
   0.33333334  0.33333334  0.32977883
   0.33333334  0.66666669 -0.00171575
   0.33333334  0.66666669  0.16386056
   0.33333334  0.66666669  0.32977883
   0.66666669 -0.00000000 -0.00171575
   0.66666669  0.00000000  0.16386056
   0.66666669 -0.00000000  0.32977883
   0.66666669  0.33333334 -0.00171575
   0.66666669  0.33333334  0.16386056
   0.66666669  0.33333334  0.32977883
   0.66666669  0.66666669 -0.00171575
   0.66666669  0.66666669  0.16386056
   0.66666669  0.66666669  0.32977883
  -0.00000000  0.16666667  0.08120001
   0.00000000  0.16666667  0.24711827
  -0.00000000  0.16666667  0.41269457
  -0.00000000  0.50000000  0.08120001
   0.00000000  0.50000000  0.24711827
  -0.00000000  0.50000000  0.41269457
  -0.00000000  0.83333331  0.08120001
  -0.00000000  0.83333331  0.24711827
  -0.00000000  0.83333331  0.41269457
   0.33333334  0.16666667  0.08120001
   0.33333334  0.16666667  0.24711827
   0.33333334  0.16666667  0.41269457
   0.33333334  0.50000000  0.08120001
   0.33333334  0.50000000  0.24711827
   0.33333334  0.50000000  0.41269457
   0.33333334  0.83333331  0.08120001
   0.33333334  0.83333331  0.24711827
   0.33333334  0.83333331  0.41269457
   0.66666669  0.16666667  0.08120001
   0.66666669  0.16666667  0.24711827
   0.66666669  0.16666667  0.41269457
   0.66666669  0.50000000  0.08120001
   0.66666669  0.50000000  0.24711827
   0.66666669  0.50000000  0.41269457
   0.66666669  0.83333331  0.08120001
   0.66666669  0.83333331  0.24711827
   0.66666669  0.83333331  0.41269457
   0.16666667  0.00000000  0.08120001
   0.16666667 -0.00000000  0.24711827
   0.16666667  0.00000000  0.41269457
   0.16666667  0.33333334  0.08120001
   0.16666667  0.33333334  0.24711827
   0.16666667  0.33333334  0.41269457
   0.16666667  0.66666669  0.08120001
   0.16666667  0.66666669  0.24711827
   0.16666667  0.66666669  0.41269457
   0.50000000  0.00000000  0.08120001
   0.50000000 -0.00000000  0.24711827
   0.50000000  0.00000000  0.41269457
   0.50000000  0.33333334  0.08120001
   0.50000000  0.33333334  0.24711827
   0.50000000  0.33333334  0.41269457
   0.50000000  0.66666669  0.08120001
   0.50000000  0.66666669  0.24711827
   0.50000000  0.66666669  0.41269457
   0.83333331  0.00000000  0.08120001
   0.83333331  0.00000000  0.24711827
   0.83333331 -0.00000000  0.41269457
   0.83333331  0.33333334  0.08120001
   0.83333331  0.33333334  0.24711827
   0.83333331  0.33333334  0.41269457
   0.83333331  0.66666669  0.08120001
   0.83333331  0.66666669  0.24711827
   0.83333331  0.66666669  0.41269457
   0.16666667  0.16666667 -0.00171575
   0.16666667  0.16666667  0.16386056
   0.16666667  0.16666667  0.32977883
   0.16666667  0.50000000 -0.00171575
   0.16666667  0.50000000  0.16386056
   0.16666667  0.50000000  0.32977883
   0.16666667  0.83333331 -0.00171575
   0.16666667  0.83333331  0.16386056
   0.16666667  0.83333331  0.32977883
   0.50000000  0.16666667 -0.00171575
   0.50000000  0.16666667  0.16386056
   0.50000000  0.16666667  0.32977883
   0.50000000  0.50000000 -0.00171575
   0.50000000  0.50000000  0.16386056
   0.50000000  0.50000000  0.32977883
   0.50000000  0.83333331 -0.00171575
   0.50000000  0.83333331  0.16386056
   0.50000000  0.83333331  0.32977883
   0.83333331  0.16666667 -0.00171575
   0.83333331  0.16666667  0.16386056
   0.83333331  0.16666667  0.32977883
   0.83333331  0.50000000 -0.00171575
   0.83333331  0.50000000  0.16386056
   0.83333331  0.50000000  0.32977883
   0.83333331  0.83333331 -0.00171575
   0.83333331  0.83333331  0.16386056
   0.83333331  0.83333331  0.32977883
   0.16666667 -0.00000000  0.00229091
   0.16666667 -0.00000000  0.16395324
   0.16666667 -0.00000000  0.32602214
   0.16666667  0.33333334  0.00229091
   0.16666667  0.33333334  0.16395324
   0.16666667  0.33333334  0.32602214
   0.16666667  0.66666669  0.00229091
   0.16666667  0.66666669  0.16395324
   0.16666667  0.66666669  0.32602214
   0.50000000 -0.00000000  0.00229091
   0.50000000  0.00000000  0.16395324
   0.50000000  0.00000000  0.32602214
   0.50000000  0.33333334  0.00229091
   0.50000000  0.33333334  0.16395324
   0.50000000  0.33333334  0.32602214
   0.50000000  0.66666669  0.00229091
   0.50000000  0.66666669  0.16395324
   0.50000000  0.66666669  0.32602214
   0.83333331  0.00000000  0.00229091
   0.83333331 -0.00000000  0.16395324
   0.83333331  0.00000000  0.32602214
   0.83333331  0.33333334  0.00229091
   0.83333331  0.33333334  0.16395324
   0.83333331  0.33333334  0.32602214
   0.83333331  0.66666669  0.00229091
   0.83333331  0.66666669  0.16395324
   0.83333331  0.66666669  0.32602214
   0.16666667  0.16666667  0.08495670
   0.16666667  0.16666667  0.24702559
   0.16666667  0.16666667  0.40868791
   0.16666667  0.50000000  0.08495670
   0.16666667  0.50000000  0.24702559
   0.16666667  0.50000000  0.40868791
   0.16666667  0.83333331  0.08495670
   0.16666667  0.83333331  0.24702559
   0.16666667  0.83333331  0.40868791
   0.50000000  0.16666667  0.08495670
   0.50000000  0.16666667  0.24702559
   0.50000000  0.16666667  0.40868791
   0.50000000  0.50000000  0.08495670
   0.50000000  0.50000000  0.24702559
   0.50000000  0.50000000  0.40868791
   0.50000000  0.83333331  0.08495670
   0.50000000  0.83333331  0.24702559
   0.50000000  0.83333331  0.40868791
   0.83333331  0.16666667  0.08495670
   0.83333331  0.16666667  0.24702559
   0.83333331  0.16666667  0.40868791
   0.83333331  0.50000000  0.08495670
   0.83333331  0.50000000  0.24702559
   0.83333331  0.50000000  0.40868791
   0.83333331  0.83333331  0.08495670
   0.83333331  0.83333331  0.24702559
   0.83333331  0.83333331  0.40868791
   0.00000000 -0.00000000  0.08495670
  -0.00000000  0.00000000  0.24702559
  -0.00000000  0.00000000  0.40868791
   0.00000000  0.33333334  0.08495670
  -0.00000000  0.33333334  0.24702559
   0.00000000  0.33333334  0.40868791
   0.00000000  0.66666669  0.08495670
   0.00000000  0.66666669  0.24702559
   0.00000000  0.66666669  0.40868791
   0.33333334 -0.00000000  0.08495670
   0.33333334 -0.00000000  0.24702559
   0.33333334 -0.00000000  0.40868791
   0.33333334  0.33333334  0.08495670
   0.33333334  0.33333334  0.24702559
   0.33333334  0.33333334  0.40868791
   0.33333334  0.66666669  0.08495670
   0.33333334  0.66666669  0.24702559
   0.33333334  0.66666669  0.40868791
   0.66666669  0.00000000  0.08495670
   0.66666669  0.00000000  0.24702559
   0.66666669  0.00000000  0.40868791
   0.66666669  0.33333334  0.08495670
   0.66666669  0.33333334  0.24702559
   0.66666669  0.33333334  0.40868791
   0.66666669  0.66666669  0.08495670
   0.66666669  0.66666669  0.24702559
   0.66666669  0.66666669  0.40868791
  -0.00000000  0.16666667  0.00229091
  -0.00000000  0.16666667  0.16395324
   0.00000000  0.16666667  0.32602214
  -0.00000000  0.50000000  0.00229091
  -0.00000000  0.50000000  0.16395324
   0.00000000  0.50000000  0.32602214
   0.00000000  0.83333331  0.00229091
  -0.00000000  0.83333331  0.16395324
   0.00000000  0.83333331  0.32602214
   0.33333334  0.16666667  0.00229091
   0.33333334  0.16666667  0.16395324
   0.33333334  0.16666667  0.32602214
   0.33333334  0.50000000  0.00229091
   0.33333334  0.50000000  0.16395324
   0.33333334  0.50000000  0.32602214
   0.33333334  0.83333331  0.00229091
   0.33333334  0.83333331  0.16395324
   0.33333334  0.83333331  0.32602214
   0.66666669  0.16666667  0.00229091
   0.66666669  0.16666667  0.16395324
   0.66666669  0.16666667  0.32602214
   0.66666669  0.50000000  0.00229091
   0.66666669  0.50000000  0.16395324
   0.66666669  0.50000000  0.32602214
   0.66666669  0.83333331  0.00229091
   0.66666669  0.83333331  0.16395324
   0.66666669  0.83333331  0.32602214
Direct configuration=     4
  -0.00000000 -0.00000000 -0.00205484
  -0.00000000 -0.00000000  0.16375562
  -0.00000000 -0.00000000  0.32997563
  -0.00000000  0.33333334 -0.00205484
   0.00000000  0.33333334  0.16375562
  -0.00000000  0.33333334  0.32997563
  -0.00000000  0.66666669 -0.00205484
  -0.00000000  0.66666669  0.16375562
  -0.00000000  0.66666669  0.32997563
   0.33333334  0.00000000 -0.00205484
   0.33333334  0.00000000  0.16375562
   0.33333334  0.00000000  0.32997563
   0.33333334  0.33333334 -0.00205484
   0.33333334  0.33333334  0.16375562
   0.33333334  0.33333334  0.32997563
   0.33333334  0.66666669 -0.00205484
   0.33333334  0.66666669  0.16375562
   0.33333334  0.66666669  0.32997563
   0.66666669 -0.00000000 -0.00205484
   0.66666669  0.00000000  0.16375562
   0.66666669 -0.00000000  0.32997563
   0.66666669  0.33333334 -0.00205484
   0.66666669  0.33333334  0.16375562
   0.66666669  0.33333334  0.32997563
   0.66666669  0.66666669 -0.00205484
   0.66666669  0.66666669  0.16375562
   0.66666669  0.66666669  0.32997563
  -0.00000000  0.16666667  0.08100321
   0.00000000  0.16666667  0.24722321
  -0.00000000  0.16666667  0.41303366
  -0.00000000  0.50000000  0.08100321
   0.00000000  0.50000000  0.24722321
  -0.00000000  0.50000000  0.41303366
  -0.00000000  0.83333331  0.08100321
  -0.00000000  0.83333331  0.24722321
  -0.00000000  0.83333331  0.41303366
   0.33333334  0.16666667  0.08100321
   0.33333334  0.16666667  0.24722321
   0.33333334  0.16666667  0.41303366
   0.33333334  0.50000000  0.08100321
   0.33333334  0.50000000  0.24722321
   0.33333334  0.50000000  0.41303366
   0.33333334  0.83333331  0.08100321
   0.33333334  0.83333331  0.24722321
   0.33333334  0.83333331  0.41303366
   0.66666669  0.16666667  0.08100321
   0.66666669  0.16666667  0.24722321
   0.66666669  0.16666667  0.41303366
   0.66666669  0.50000000  0.08100321
   0.66666669  0.50000000  0.24722321
   0.66666669  0.50000000  0.41303366
   0.66666669  0.83333331  0.08100321
   0.66666669  0.83333331  0.24722321
   0.66666669  0.83333331  0.41303366
   0.16666667  0.00000000  0.08100321
   0.16666667 -0.00000000  0.24722321
   0.16666667  0.00000000  0.41303366
   0.16666667  0.33333334  0.08100321
   0.16666667  0.33333334  0.24722321
   0.16666667  0.33333334  0.41303366
   0.16666667  0.66666669  0.08100321
   0.16666667  0.66666669  0.24722321
   0.16666667  0.66666669  0.41303366
   0.50000000  0.00000000  0.08100321
   0.50000000 -0.00000000  0.24722321
   0.50000000  0.00000000  0.41303366
   0.50000000  0.33333334  0.08100321
   0.50000000  0.33333334  0.24722321
   0.50000000  0.33333334  0.41303366
   0.50000000  0.66666669  0.08100321
   0.50000000  0.66666669  0.24722321
   0.50000000  0.66666669  0.41303366
   0.83333331  0.00000000  0.08100321
   0.83333331  0.00000000  0.24722321
   0.83333331 -0.00000000  0.41303366
   0.83333331  0.33333334  0.08100321
   0.83333331  0.33333334  0.24722321
   0.83333331  0.33333334  0.41303366
   0.83333331  0.66666669  0.08100321
   0.83333331  0.66666669  0.24722321
   0.83333331  0.66666669  0.41303366
   0.16666667  0.16666667 -0.00205484
   0.16666667  0.16666667  0.16375562
   0.16666667  0.16666667  0.32997563
   0.16666667  0.50000000 -0.00205484
   0.16666667  0.50000000  0.16375562
   0.16666667  0.50000000  0.32997563
   0.16666667  0.83333331 -0.00205484
   0.16666667  0.83333331  0.16375562
   0.16666667  0.83333331  0.32997563
   0.50000000  0.16666667 -0.00205484
   0.50000000  0.16666667  0.16375562
   0.50000000  0.16666667  0.32997563
   0.50000000  0.50000000 -0.00205484
   0.50000000  0.50000000  0.16375562
   0.50000000  0.50000000  0.32997563
   0.50000000  0.83333331 -0.00205484
   0.50000000  0.83333331  0.16375562
   0.50000000  0.83333331  0.32997563
   0.83333331  0.16666667 -0.00205484
   0.83333331  0.16666667  0.16375562
   0.83333331  0.16666667  0.32997563
   0.83333331  0.50000000 -0.00205484
   0.83333331  0.50000000  0.16375562
   0.83333331  0.50000000  0.32997563
   0.83333331  0.83333331 -0.00205484
   0.83333331  0.83333331  0.16375562
   0.83333331  0.83333331  0.32997563
   0.16666667 -0.00000000  0.00274367
   0.16666667 -0.00000000  0.16386662
   0.16666667 -0.00000000  0.32547649
   0.16666667  0.33333334  0.00274367
   0.16666667  0.33333334  0.16386662
   0.16666667  0.33333334  0.32547649
   0.16666667  0.66666669  0.00274367
   0.16666667  0.66666669  0.16386662
   0.16666667  0.66666669  0.32547649
   0.50000000 -0.00000000  0.00274367
   0.50000000  0.00000000  0.16386662
   0.50000000  0.00000000  0.32547649
   0.50000000  0.33333334  0.00274367
   0.50000000  0.33333334  0.16386662
   0.50000000  0.33333334  0.32547649
   0.50000000  0.66666669  0.00274367
   0.50000000  0.66666669  0.16386662
   0.50000000  0.66666669  0.32547649
   0.83333331  0.00000000  0.00274367
   0.83333331 -0.00000000  0.16386662
   0.83333331  0.00000000  0.32547649
   0.83333331  0.33333334  0.00274367
   0.83333331  0.33333334  0.16386662
   0.83333331  0.33333334  0.32547649
   0.83333331  0.66666669  0.00274367