NiAl                                    
            1
    10.541500    0.000000    0.000000
     5.270750    9.129207    0.000000
     0.000000    0.000000   28.541500
   Ni   O 
   125   125
Direct configuration=     1
   0.00000000  0.00000000  0.00000000
   0.00000000  0.00000000  0.07386788
   0.00000000  0.00000000  0.14773576
   0.00000000  0.00000000  0.22160364
   0.00000000  0.00000000  0.29547151
   0.00000000  0.20000000  0.00000000
   0.00000000  0.20000000  0.07386788
   0.00000000  0.20000000  0.14773576
   0.00000000  0.20000000  0.22160364
   0.00000000  0.20000000  0.29547151
   0.00000000  0.40000001  0.00000000
   0.00000000  0.40000001  0.07386788
   0.00000000  0.40000001  0.14773576
   0.00000000  0.40000001  0.22160364
   0.00000000  0.40000001  0.29547151
   0.00000000  0.60000002  0.00000000
   0.00000000  0.60000002  0.07386788
   0.00000000  0.60000002  0.14773576
   0.00000000  0.60000002  0.22160364
   0.00000000  0.60000002  0.29547151
   0.00000000  0.80000001  0.00000000
   0.00000000  0.80000001  0.07386788
   0.00000000  0.80000001  0.14773576
   0.00000000  0.80000001  0.22160364
   0.00000000  0.80000001  0.29547151
   0.20000000  0.00000000  0.00000000
   0.20000000  0.00000000  0.07386788
   0.20000000  0.00000000  0.14773576
   0.20000000  0.00000000  0.22160364
   0.20000000  0.00000000  0.29547151
   0.20000000  0.20000000  0.00000000
   0.20000000  0.20000000  0.07386788
   0.20000000  0.20000000  0.14773576
   0.20000000  0.20000000  0.22160364
   0.20000000  0.20000000  0.29547151
   0.20000000  0.40000001  0.00000000
   0.20000000  0.40000001  0.07386788
   0.20000000  0.40000001  0.14773576
   0.20000000  0.40000001  0.22160364
   0.20000000  0.40000001  0.29547151
   0.20000000  0.60000002  0.00000000
   0.20000000  0.60000002  0.07386788
   0.20000000  0.60000002  0.14773576
   0.20000000  0.60000002  0.22160364
   0.20000000  0.60000002  0.29547151
   0.20000000  0.80000001  0.00000000
   0.20000000  0.80000001  0.07386788
   0.20000000  0.80000001  0.14773576
   0.20000000  0.80000001  0.22160364
   0.20000000  0.80000001  0.29547151
   0.40000001  0.00000000  0.00000000
   0.40000001  0.00000000  0.07386788
   0.40000001  0.00000000  0.14773576
   0.40000001  0.00000000  0.22160364
   0.40000001  0.00000000  0.29547151
   0.40000001  0.20000000  0.00000000
   0.40000001  0.20000000  0.07386788
   0.40000001  0.20000000  0.14773576
   0.40000001  0.20000000  0.22160364
   0.40000001  0.20000000  0.29547151
   0.40000001  0.40000001  0.00000000
   0.40000001  0.40000001  0.07386788
   0.40000001  0.40000001  0.14773576
   0.40000001  0.40000001  0.22160364
   0.40000001  0.40000001  0.29547151
   0.40000001  0.60000002  0.00000000
   0.40000001  0.60000002  0.07386788
   0.40000001  0.60000002  0.14773576
   0.40000001  0.60000002  0.22160364
   0.40000001  0.60000002  0.29547151
   0.40000001  0.80000001  0.00000000
   0.40000001  0.80000001  0.07386788
   0.40000001  0.80000001  0.14773576
   0.40000001  0.80000001  0.22160364
   0.40000001  0.80000001  0.29547151
   0.60000002  0.00000000  0.00000000
   0.60000002  0.00000000  0.07386788
   0.60000002  0.00000000  0.14773576
   0.60000002  0.00000000  0.22160364
   0.60000002  0.00000000  0.29547151
   0.60000002  0.20000000  0.00000000
   0.60000002  0.20000000  0.07386788
   0.60000002  0.20000000  0.14773576
   0.60000002  0.20000000  0.22160364
   0.60000002  0.20000000  0.29547151
   0.60000002  0.40000001  0.00000000
   0.60000002  0.40000001  0.07386788
   0.60000002  0.40000001  0.14773576
   0.60000002  0.40000001  0.22160364
   0.60000002  0.40000001  0.29547151
   0.60000002  0.60000002  0.00000000
   0.60000002  0.60000002  0.07386788
   0.60000002  0.60000002  0.14773576
   0.60000002  0.60000002  0.22160364
   0.60000002  0.60000002  0.29547151
   0.60000002  0.80000001  0.00000000
   0.60000002  0.80000001  0.07386788
   0.60000002  0.80000001  0.14773576
   0.60000002  0.80000001  0.22160364
   0.60000002  0.80000001  0.29547151
   0.80000001  0.00000000  0.00000000
   0.80000001  0.00000000  0.07386788
   0.80000001  0.00000000  0.14773576
   0.80000001  0.00000000  0.22160364
   0.80000001  0.00000000  0.29547151
   0.80000001  0.20000000  0.00000000
   0.80000001  0.20000000  0.07386788
   0.80000001  0.20000000  0.14773576
   0.80000001  0.20000000  0.22160364
   0.80000001  0.20000000  0.29547151
   0.80000001  0.40000001  0.00000000
   0.80000001  0.40000001  0.07386788
   0.80000001  0.40000001  0.14773576
   0.80000001  0.40000001  0.22160364
   0.80000001  0.40000001  0.29547151
   0.80000001  0.60000002  0.00000000
   0.80000001  0.60000002  0.07386788
   0.80000001  0.60000002  0.14773576
   0.80000001  0.60000002  0.22160364
   0.80000001  0.60000002  0.29547151
   0.80000001  0.80000001  0.00000000
   0.80000001  0.80000001  0.07386788
   0.80000001  0.80000001  0.14773576
   0.80000001  0.80000001  0.22160364
   0.80000001  0.80000001  0.29547151
   0.10000000  0.10000000  0.03693394
   0.10000000  0.10000000  0.11080182
   0.10000000  0.10000000  0.18466969
   0.10000000  0.10000000  0.25853757
   0.10000000  0.10000000  0.33240544
   0.10000000  0.30000001  0.03693394
   0.10000000  0.30000001  0.11080182
   0.10000000  0.30000001  0.18466969
   0.10000000  0.30000001  0.25853757
   0.10000000  0.30000001  0.33240544
   0.10000000  0.50000000  0.03693394
   0.10000000  0.50000000  0.11080182
   0.10000000  0.50000000  0.18466969
   0.10000000  0.50000000  0.25853757
   0.10000000  0.50000000  0.33240544
   0.10000000  0.69999999  0.03693394
   0.10000000  0.69999999  0.11080182
   0.10000000  0.69999999  0.18466969
   0.10000000  0.69999999  0.25853757
   0.10000000  0.69999999  0.33240544
   0.10000000  0.89999998  0.03693394
   0.10000000  0.89999998  0.11080182
   0.10000000  0.89999998  0.18466969
   0.10000000  0.89999998  0.25853757
   0.10000000  0.89999998  0.33240544
   0.30000001  0.10000000  0.03693394
   0.30000001  0.10000000  0.11080182
   0.30000001  0.10000000  0.18466969
   0.30000001  0.10000000  0.25853757
   0.30000001  0.10000000  0.33240544
   0.30000001  0.30000001  0.03693394
   0.30000001  0.30000001  0.11080182
   0.30000001  0.30000001  0.18466969
   0.30000001  0.30000001  0.25853757
   0.30000001  0.30000001  0.33240544
   0.30000001  0.50000000  0.03693394
   0.30000001  0.50000000  0.11080182
   0.30000001  0.50000000  0.18466969
   0.30000001  0.50000000  0.25853757
   0.30000001  0.50000000  0.33240544
   0.30000001  0.69999999  0.03693394
   0.30000001  0.69999999  0.11080182
   0.30000001  0.69999999  0.18466969
   0.30000001  0.69999999  0.25853757
   0.30000001  0.69999999  0.33240544
   0.30000001  0.89999998  0.03693394
   0.30000001  0.89999998  0.11080182
   0.30000001  0.89999998  0.18466969
   0.30000001  0.89999998  0.25853757
   0.30000001  0.89999998  0.33240544
   0.50000000  0.10000000  0.03693394
   0.50000000  0.10000000  0.11080182
   0.50000000  0.10000000  0.18466969
   0.50000000  0.10000000  0.25853757
   0.50000000  0.10000000  0.33240544
   0.50000000  0.30000001  0.03693394
   0.50000000  0.30000001  0.11080182
   0.50000000  0.30000001  0.18466969
   0.50000000  0.30000001  0.25853757
   0.50000000  0.30000001  0.33240544
   0.50000000  0.50000000  0.03693394
   0.50000000  0.50000000  0.11080182
   0.50000000  0.50000000  0.18466969
   0.50000000  0.50000000  0.25853757
   0.50000000  0.50000000  0.33240544
   0.50000000  0.69999999  0.03693394
   0.50000000  0.69999999  0.11080182
   0.50000000  0.69999999  0.18466969
   0.50000000  0.69999999  0.25853757
   0.50000000  0.69999999  0.33240544
   0.50000000  0.89999998  0.03693394
   0.50000000  0.89999998  0.11080182
   0.50000000  0.89999998  0.18466969
   0.50000000  0.89999998  0.25853757
   0.50000000  0.89999998  0.33240544
   0.69999999  0.10000000  0.03693394
   0.69999999  0.10000000  0.11080182
   0.69999999  0.10000000  0.18466969
   0.69999999  0.10000000  0.25853757
   0.69999999  0.10000000  0.33240544
   0.69999999  0.30000001  0.03693394
   0.69999999  0.30000001  0.11080182
   0.69999999  0.30000001  0.18466969
   0.69999999  0.30000001  0.25853757
   0.69999999  0.30000001  0.33240544
   0.69999999  0.50000000  0.03693394
   0.69999999  0.50000000  0.11080182
   0.69999999  0.50000000  0.18466969
   0.69999999  0.50000000  0.25853757
   0.69999999  0.50000000  0.33240544
   0.69999999  0.69999999  0.03693394
   0.69999999  0.69999999  0.11080182
   0.69999999  0.69999999  0.18466969
   0.69999999  0.69999999  0.25853757
   0.69999999  0.69999999  0.33240544
   0.69999999  0.89999998  0.03693394
   0.69999999  0.89999998  0.11080182
   0.69999999  0.89999998  0.18466969
   0.69999999  0.89999998  0.25853757
   0.69999999  0.89999998  0.33240544
   0.89999998  0.10000000  0.03693394
   0.89999998  0.10000000  0.11080182
   0.89999998  0.10000000  0.18466969
   0.89999998  0.10000000  0.25853757
   0.89999998  0.10000000  0.33240544
   0.89999998  0.30000001  0.03693394
   0.89999998  0.30000001  0.11080182
   0.89999998  0.30000001  0.18466969
   0.89999998  0.30000001  0.25853757
   0.89999998  0.30000001  0.33240544
   0.89999998  0.50000000  0.03693394
   0.89999998  0.50000000  0.11080182
   0.89999998  0.50000000  0.18466969
   0.89999998  0.50000000  0.25853757
   0.89999998  0.50000000  0.33240544
   0.89999998  0.69999999  0.03693394
   0.89999998  0.69999999  0.11080182
   0.89999998  0.69999999  0.18466969
   0.89999998  0.69999999  0.25853757
   0.89999998  0.69999999  0.33240544
   0.89999998  0.89999998  0.03693394
   0.89999998  0.89999998  0.11080182
   0.89999998  0.89999998  0.18466969
   0.89999998  0.89999998  0.25853757
   0.89999998  0.89999998  0.33240544
Direct configuration=     2
  -0.00000000  0.00000000 -0.01908307
  -0.00000000 -0.00000000  0.07194261
   0.00000000  0.00000000  0.14791178
  -0.00000000  0.00000000  0.22184271
   0.00000000  0.00000000  0.30104228
  -0.00000000  0.20000000 -0.01908307
   0.00000000  0.20000000  0.07194261
   0.00000000  0.20000000  0.14791178
   0.00000000  0.20000000  0.22184271
   0.00000000  0.20000000  0.30104228
  -0.00000000  0.40000001 -0.01908307
  -0.00000000  0.40000001  0.07194261
   0.00000000  0.40000001  0.14791178
  -0.00000000  0.40000001  0.22184271
  -0.00000000  0.40000001  0.30104228
  -0.00000000  0.60000002 -0.01908307
  -0.00000000  0.60000002  0.07194261
   0.00000000  0.60000002  0.14791178
  -0.00000000  0.60000002  0.22184271
  -0.00000000  0.60000002  0.30104228
  -0.00000000  0.80000001 -0.01908307
  -0.00000000  0.80000001  0.07194261
   0.00000000  0.80000001  0.14791178
  -0.00000000  0.80000001  0.22184271
   0.00000000  0.80000001  0.30104228
   0.20000000  0.00000000 -0.01908307
   0.20000000 -0.00000000  0.07194261
   0.20000000  0.00000000  0.14791178
   0.20000000  0.00000000  0.22184271
   0.20000000  0.00000000  0.30104228
   0.20000000  0.20000000 -0.01908307
   0.20000000  0.20000000  0.07194261
   0.20000000  0.20000000  0.14791178
   0.20000000  0.20000000  0.22184271
   0.20000000  0.20000000  0.30104228
   0.20000000  0.40000001 -0.01908307
   0.20000000  0.40000001  0.07194261
   0.20000000  0.40000001  0.14791178
   0.20000000  0.40000001  0.22184271
   0.20000000  0.40000001  0.30104228
   0.20000000  0.60000002 -0.01908307
   0.20000000  0.60000002  0.07194261
   0.20000000  0.60000002  0.14791178
   0.20000000  0.60000002  0.22184271
   0.20000000  0.60000002  0.30104228
   0.20000000  0.80000001 -0.01908307
   0.20000000  0.80000001  0.07194261
   0.20000000  0.80000001  0.14791178
   0.20000000  0.80000001  0.22184271
   0.20000000  0.80000001  0.30104228
   0.40000001 -0.00000000 -0.01908307
   0.40000001 -0.00000000  0.07194261
   0.40000001  0.00000000  0.14791178
   0.40000001 -0.00000000  0.22184271
   0.40000001  0.00000000  0.30104228
   0.40000001  0.20000000 -0.01908307
   0.40000001  0.20000000  0.07194261
   0.40000001  0.20000000  0.14791178
   0.40000001  0.20000000  0.22184271
   0.40000001  0.20000000  0.30104228
   0.40000001  0.40000001 -0.01908307
   0.40000001  0.40000001  0.07194261
   0.40000001  0.40000001  0.14791178
   0.40000001  0.40000001  0.22184271
   0.40000001  0.40000001  0.30104228
   0.40000001  0.60000002 -0.01908307
   0.40000001  0.60000002  0.07194261
   0.40000001  0.60000002  0.14791178
   0.40000001  0.60000002  0.22184271
   0.40000001  0.60000002  0.30104228
   0.40000001  0.80000001 -0.01908307
   0.40000001  0.80000001  0.07194261
   0.40000001  0.80000001  0.14791178
   0.40000001  0.80000001  0.22184271
   0.40000001  0.80000001  0.30104228
   0.60000002 -0.00000000 -0.01908307
   0.60000002  0.00000000  0.07194261
   0.60000002 -0.00000000  0.14791178
   0.60000002 -0.00000000  0.22184271
   0.60000002 -0.00000000  0.30104228
   0.60000002  0.20000000 -0.01908307
   0.60000002  0.20000000  0.07194261
   0.60000002  0.20000000  0.14791178
   0.60000002  0.20000000  0.22184271
   0.60000002  0.20000000  0.30104228
   0.60000002  0.40000001 -0.01908307
   0.60000002  0.40000001  0.07194261
   0.60000002  0.40000001  0.14791178
   0.60000002  0.40000001  0.22184271
   0.60000002  0.40000001  0.30104228
   0.60000002  0.60000002 -0.01908307
   0.60000002  0.60000002  0.07194261
   0.60000002  0.60000002  0.14791178
   0.60000002  0.60000002  0.22184271
   0.60000002  0.60000002  0.30104228
   0.60000002  0.80000001 -0.01908307
   0.60000002  0.80000001  0.07194261
   0.60000002  0.80000001  0.14791178
   0.60000002  0.80000001  0.22184271
   0.60000002  0.80000001  0.30104228
   0.80000001 -0.00000000 -0.01908307
   0.80000001  0.00000000  0.07194261
   0.80000001  0.00000000  0.14791178
   0.80000001 -0.00000000  0.22184271
   0.80000001 -0.00000000  0.30104228
   0.80000001  0.20000000 -0.01908307
   0.80000001  0.20000000  0.07194261
   0.80000001  0.20000000  0.14791178
   0.80000001  0.20000000  0.22184271
   0.80000001  0.20000000  0.30104228
   0.80000001  0.40000001 -0.01908307
   0.80000001  0.40000001  0.07194261
   0.80000001  0.40000001  0.14791178
   0.80000001  0.40000001  0.22184271
   0.80000001  0.40000001  0.30104228
   0.80000001  0.60000002 -0.01908307
   0.80000001  0.60000002  0.07194261
   0.80000001  0.60000002  0.14791178
   0.80000001  0.60000002  0.22184271
   0.80000001  0.60000002  0.30104228
   0.80000001  0.80000001 -0.01908307
   0.80000001  0.80000001  0.07194261
   0.80000001  0.80000001  0.14791178
   0.80000001  0.80000001  0.22184271
   0.80000001  0.80000001  0.30104228
   0.10000000  0.10000000  0.03608342
   0.10000000  0.10000000  0.11072260
   0.10000000  0.10000000  0.18471727
   0.10000000  0.10000000  0.25786193
   0.10000000  0.10000000  0.34898572
   0.10000000  0.30000001  0.03608342
   0.10000000  0.30000001  0.11072260
   0.10000000  0.30000001  0.18471727
   0.10000000  0.30000001  0.25786193
   0.10000000  0.30000001  0.34898572
   0.10000000  0.50000000  0.03608342
   0.10000000  0.50000000  0.11072260
   0.10000000  0.50000000  0.18471727
   0.10000000  0.50000000  0.25786193
   0.10000000  0.50000000  0.34898572
   0.10000000  0.69999999  0.03608342
   0.10000000  0.69999999  0.11072260
   0.10000000  0.69999999  0.18471727
   0.10000000  0.69999999  0.25786193
   0.10000000  0.69999999  0.34898572
   0.10000000  0.89999998  0.03608342
   0.10000000  0.89999998  0.11072260
   0.10000000  0.89999998  0.18471727
   0.10000000  0.89999998  0.25786193
   0.10000000  0.89999998  0.34898572
   0.30000001  0.10000000  0.03608342
   0.30000001  0.10000000  0.11072260
   0.30000001  0.10000000  0.18471727
   0.30000001  0.10000000  0.25786193
   0.30000001  0.10000000  0.34898572
   0.30000001  0.30000001  0.03608342
   0.30000001  0.30000001  0.11072260
   0.30000001  0.30000001  0.18471727
   0.30000001  0.30000001  0.25786193
   0.30000001  0.30000001  0.34898572
   0.30000001  0.50000000  0.03608342
   0.30000001  0.50000000  0.11072260
   0.30000001  0.50000000  0.18471727
   0.30000001  0.50000000  0.25786193
   0.30000001  0.50000000  0.34898572
   0.30000001  0.69999999  0.03608342
   0.30000001  0.69999999  0.11072260
   0.30000001  0.69999999  0.18471727
   0.30000001  0.69999999  0.25786193
   0.30000001  0.69999999  0.34898572
   0.30000001  0.89999998  0.03608342
   0.30000001  0.89999998  0.11072260
   0.30000001  0.89999998  0.18471727
   0.30000001  0.89999998  0.25786193
   0.30000001  0.89999998  0.34898572
   0.50000000  0.10000000  0.03608342
   0.50000000  0.10000000  0.11072260
   0.50000000  0.10000000  0.18471727
   0.50000000  0.10000000  0.25786193
   0.50000000  0.10000000  0.34898572
   0.50000000  0.30000001  0.03608342
   0.50000000  0.30000001  0.11072260
   0.50000000  0.30000001  0.18471727
   0.50000000  0.30000001  0.25786193
   0.50000000  0.30000001  0.34898572
   0.50000000  0.50000000  0.03608342
   0.50000000  0.50000000  0.11072260
   0.50000000  0.50000000  0.18471727
   0.50000000  0.50000000  0.25786193
   0.50000000  0.50000000  0.34898572
   0.50000000  0.69999999  0.03608342
   0.50000000  0.69999999  0.11072260
   0.50000000  0.69999999  0.18471727
   0.50000000  0.69999999  0.25786193
   0.50000000  0.69999999  0.34898572
   0.50000000  0.89999998  0.03608342
   0.50000000  0.89999998  0.11072260
   0.50000000  0.89999998  0.18471727
   0.50000000  0.89999998  0.25786193
   0.50000000  0.89999998  0.34898572
   0.69999999  0.10000000  0.03608342
   0.69999999  0.10000000  0.11072260
   0.69999999  0.10000000  0.18471727
   0.69999999  0.10000000  0.25786193
   0.69999999  0.10000000  0.34898572
   0.69999999  0.30000001  0.03608342
   0.69999999  0.30000001  0.11072260
   0.69999999  0.30000001  0.18471727
   0.69999999  0.30000001  0.25786193
   0.69999999  0.30000001  0.34898572
   0.69999999  0.50000000  0.03608342
   0.69999999  0.50000000  0.11072260
   0.69999999  0.50000000  0.18471727
   0.69999999  0.50000000  0.25786193
   0.69999999  0.50000000  0.34898572
   0.69999999  0.69999999  0.03608342
   0.69999999  0.69999999  0.11072260
   0.69999999  0.69999999  0.18471727
   0.69999999  0.69999999  0.25786193
   0.69999999  0.69999999  0.34898572
   0.69999999  0.89999998  0.03608342
   0.69999999  0.89999998  0.11072260
   0.69999999  0.89999998  0.18471727
   0.69999999  0.89999998  0.25786193
   0.69999999  0.89999998  0.34898572
   0.89999998  0.10000000  0.03608342
   0.89999998  0.10000000  0.11072260
   0.89999998  0.10000000  0.18471727
   0.89999998  0.10000000  0.25786193
   0.89999998  0.10000000  0.34898572
   0.89999998  0.30000001  0.03608342
   0.89999998  0.30000001  0.11072260
   0.89999998  0.30000001  0.18471727
   0.89999998  0.30000001  0.25786193
   0.89999998  0.30000001  0.34898572
   0.89999998  0.50000000  0.03608342
   0.89999998  0.50000000  0.11072260
   0.89999998  0.50000000  0.18471727
   0.89999998  0.50000000  0.25786193
   0.89999998  0.50000000  0.34898572
   0.89999998  0.69999999  0.03608342
   0.89999998  0.69999999  0.11072260
   0.89999998  0.69999999  0.18471727
   0.89999998  0.69999999  0.25786193
   0.89999998  0.69999999  0.34898572
   0.89999998  0.89999998  0.03608342
   0.89999998  0.89999998  0.11072260
   0.89999998  0.89999998  0.18471727
   0.89999998  0.89999998  0.25786193
   0.89999998  0.89999998  0.34898572
Direct configuration=     3
  -0.00000000  0.00000000 -0.02453372
  -0.00000000 -0.00000000  0.07139270
   0.00000000  0.00000000  0.14796206
  -0.00000000  0.00000000  0.22191099
   0.00000000  0.00000000  0.30263344
  -0.00000000  0.20000000 -0.02453372
   0.00000000  0.20000000  0.07139270
   0.00000000  0.20000000  0.14796206
   0.00000000  0.20000000  0.22191099
   0.00000000  0.20000000  0.30263344
  -0.00000000  0.40000001 -0.02453372
  -0.00000000  0.40000001  0.07139270
   0.00000000  0.40000001  0.14796206
  -0.00000000  0.40000001  0.22191099
  -0.00000000  0.40000001  0.30263344
  -0.00000000  0.60000002 -0.02453372
  -0.00000000  0.60000002  0.07139270
   0.00000000  0.60000002  0.14796206
  -0.00000000  0.60000002  0.22191099
  -0.00000000  0.60000002  0.30263344
  -0.00000000  0.80000001 -0.02453372
  -0.00000000  0.80000001  0.07139270
   0.00000000  0.80000001  0.14796206
  -0.00000000  0.80000001  0.22191099
   0.00000000  0.80000001  0.30263344
   0.20000000  0.00000000 -0.02453372
   0.20000000 -0.00000000  0.07139270
   0.20000000  0.00000000  0.14796206
   0.20000000  0.00000000  0.22191099
   0.20000000  0.00000000  0.30263344
   0.20000000  0.20000000 -0.02453372
   0.20000000  0.20000000  0.07139270
   0.20000000  0.20000000  0.14796206
   0.20000000  0.20000000  0.22191099
   0.20000000  0.20000000  0.30263344
   0.20000000  0.40000001 -0.02453372
   0.20000000  0.40000001  0.07139270
   0.20000000  0.40000001  0.14796206
   0.20000000  0.40000001  0.22191099
   0.20000000  0.40000001  0.30263344
   0.20000000  0.60000002 -0.02453372
   0.20000000  0.60000002  0.07139270
   0.20000000  0.60000002  0.14796206
   0.20000000  0.60000002  0.22191099
   0.20000000  0.60000002  0.30263344
   0.20000000  0.80000001 -0.02453372
   0.20000000  0.80000001  0.07139270
   0.20000000  0.80000001  0.14796206
   0.20000000  0.80000001  0.22191099
   0.20000000  0.80000001  0.30263344
   0.40000001 -0.00000000 -0.02453372
   0.40000001 -0.00000000  0.07139270
   0.40000001  0.00000000  0.14796206
   0.40000001 -0.00000000  0.22191099
   0.40000001  0.00000000  0.30263344
   0.40000001  0.20000000 -0.02453372
   0.40000001  0.20000000  0.07139270
   0.40000001  0.20000000  0.14796206
   0.40000001  0.20000000  0.22191099
   0.40000001  0.20000000  0.30263344
   0.40000001  0.40000001 -0.02453372
   0.40000001  0.40000001  0.07139270
   0.40000001  0.40000001  0.14796206
   0.40000001  0.40000001  0.22191099
   0.40000001  0.40000001  0.30263344
   0.40000001  0.60000002 -0.02453372
   0.40000001  0.60000002  0.07139270
   0.40000001  0.60000002  0.14796206
   0.40000001  0.60000002  0.22191099
   0.40000001  0.60000002  0.30263344
   0.40000001  0.80000001 -0.02453372
   0.40000001  0.80000001  0.07139270
   0.40000001  0.80000001  0.14796206
   0.40000001  0.80000001  0.22191099
   0.40000001  0.80000001  0.30263344
   0.60000002 -0.00000000 -0.02453372
   0.60000002  0.00000000  0.07139270
   0.60000002 -0.00000000  0.14796206
   0.60000002 -0.00000000  0.22191099
   0.60000002 -0.00000000  0.30263344
   0.60000002  0.20000000 -0.02453372
   0.60000002  0.20000000  0.07139270
   0.60000002  0.20000000  0.14796206
   0.60000002  0.20000000  0.22191099
   0.60000002  0.20000000  0.30263344
   0.60000002  0.40000001 -0.02453372
   0.60000002  0.40000001  0.07139270
   0.60000002  0.40000001  0.14796206
   0.60000002  0.40000001  0.22191099
   0.60000002  0.40000001  0.30263344
   0.60000002  0.60000002 -0.02453372
   0.60000002  0.60000002  0.07139270
   0.60000002  0.60000002  0.14796206
   0.60000002  0.60000002  0.22191099
   0.60000002  0.60000002  0.30263344
   0.60000002  0.80000001 -0.02453372
   0.60000002  0.80000001  0.07139270
   0.60000002  0.80000001  0.14796206
   0.60000002  0.80000001  0.22191099
   0.60000002  0.80000001  0.30263344
   0.80000001 -0.00000000 -0.02453372
   0.80000001  0.00000000  0.07139270
   0.80000001  0.00000000  0.14796206
   0.80000001 -0.00000000  0.22191099
   0.80000001 -0.00000000  0.30263344
   0.80000001  0.20000000 -0.02453372
   0.80000001  0.20000000  0.07139270
   0.80000001  0.20000000  0.14796206
   0.80000001  0.20000000  0.22191099
   0.80000001  0.20000000  0.30263344
   0.80000001  0.40000001 -0.02453372
   0.80000001  0.40000001  0.07139270
   0.80000001  0.40000001  0.14796206
   0.80000001  0.40000001  0.22191099
   0.80000001  0.40000001  0.30263344
   0.80000001  0.60000002 -0.02453372
   0.80000001  0.60000002  0.07139270
   0.80000001  0.60000002  0.14796206
   0.80000001  0.60000002  0.22191099
   0.80000001  0.60000002  0.30263344
   0.80000001  0.80000001 -0.02453372
   0.80000001  0.80000001  0.07139270
   0.80000001  0.80000001  0.14796206
   0.80000001  0.80000001  0.22191099
   0.80000001  0.80000001  0.30263344
   0.10000000  0.10000000  0.03584049
   0.10000000  0.10000000  0.11069997
   0.10000000  0.10000000  0.18473086
   0.10000000  0.10000000  0.25766895
   0.10000000  0.10000000  0.35372150
   0.10000000  0.30000001  0.03584049
   0.10000000  0.30000001  0.11069997
   0.10000000  0.30000001  0.18473086
   0.10000000  0.30000001  0.25766895
   0.10000000  0.30000001  0.35372150
   0.10000000  0.50000000  0.03584049
   0.10000000  0.50000000  0.11069997
   0.10000000  0.50000000  0.18473086
   0.10000000  0.50000000  0.25766895
   0.10000000  0.50000000  0.35372150
   0.10000000  0.69999999  0.03584049
   0.10000000  0.69999999  0.11069997
   0.10000000  0.69999999  0.18473086
   0.10000000  0.69999999  0.25766895
   0.10000000  0.69999999  0.35372150
   0.10000000  0.89999998  0.03584049
   0.10000000  0.89999998  0.11069997
   0.10000000  0.89999998  0.18473086
   0.10000000  0.89999998  0.25766895
   0.10000000  0.89999998  0.35372150
   0.30000001  0.10000000  0.03584049
   0.30000001  0.10000000  0.11069997
   0.30000001  0.10000000  0.18473086
   0.30000001  0.10000000  0.25766895
   0.30000001  0.10000000  0.35372150
   0.30000001  0.30000001  0.03584049
   0.30000001  0.30000001  0.11069997
   0.30000001  0.30000001  0.18473086
   0.30000001  0.30000001  0.25766895
   0.30000001  0.30000001  0.35372150
   0.30000001  0.50000000  0.03584049
   0.30000001  0.50000000  0.11069997
   0.30000001  0.50000000  0.18473086
   0.30000001  0.50000000  0.25766895
   0.30000001  0.50000000  0.35372150
   0.30000001  0.69999999  0.03584049
   0.30000001  0.69999999  0.11069997
   0.30000001  0.69999999  0.18473086
   0.30000001  0.69999999  0.25766895
   0.30000001  0.69999999  0.35372150
   0.30000001  0.89999998  0.03584049
   0.30000001  0.89999998  0.11069997
   0.30000001  0.89999998  0.18473086
   0.30000001  0.89999998  0.25766895
   0.30000001  0.89999998  0.35372150
   0.50000000  0.10000000  0.03584049
   0.50000000  0.10000000  0.11069997
   0.50000000  0.10000000  0.18473086
   0.50000000  0.10000000  0.25766895
   0.50000000  0.10000000  0.35372150
   0.50000000  0.30000001  0.03584049
   0.50000000  0.30000001  0.11069997
   0.50000000  0.30000001  0.18473086
   0.50000000  0.30000001  0.25766895
   0.50000000  0.30000001  0.35372150
   0.50000000  0.50000000  0.03584049
   0.50000000  0.50000000  0.11069997
   0.50000000  0.50000000  0.18473086
   0.50000000  0.50000000  0.25766895
   0.50000000  0.50000000  0.35372150
   0.50000000  0.69999999  0.03584049
   0.50000000  0.69999999  0.11069997
   0.50000000  0.69999999  0.18473086
   0.50000000  0.69999999  0.25766895
   0.50000000  0.69999999  0.35372150
   0.50000000  0.89999998  0.03584049
   0.50000000  0.89999998  0.11069997
   0.50000000  0.89999998  0.18473086
   0.50000000  0.89999998  0.25766895
   0.50000000  0.89999998  0.35372150
   0.69999999  0.10000000  0.03584049
   0.69999999  0.10000000  0.11069997
   0.69999999  0.10000000  0.18473086
   0.69999999  0.10000000  0.25766895
   0.69999999  0.10000000  0.35372150
   0.69999999  0.30000001  0.03584049
   0.69999999  0.30000001  0.11069997
   0.69999999  0.30000001  0.18473086
   0.69999999  0.30000001  0.25766895
   0.69999999  0.30000001  0.35372150
   0.69999999  0.50000000  0.03584049
   0.69999999  0.50000000  0.11069997
   0.69999999  0.50000000  0.18473086
   0.69999999  0.50000000  0.25766895
   0.69999999  0.50000000  0.35372150
   0.69999999  0.69999999  0.03584049
   0.69999999  0.69999999  0.11069997
   0.69999999  0.69999999  0.18473086
   0.69999999  0.69999999  0.25766895
   0.69999999  0.69999999  0.35372150
   0.69999999  0.89999998  0.03584049
   0.69999999  0.89999998  0.11069997
   0.69999999  0.89999998  0.18473086
   0.69999999  0.89999998  0.25766895
   0.69999999  0.89999998  0.35372150
   0.89999998  0.10000000  0.03584049
   0.89999998  0.10000000  0.11069997
   0.89999998  0.10000000  0.18473086
   0.89999998  0.10000000  0.25766895
   0.89999998  0.10000000  0.35372150
   0.89999998  0.30000001  0.03584049
   0.89999998  0.30000001  0.11069997
   0.89999998  0.30000001  0.18473086
   0.89999998  0.30000001  0.25766895
   0.89999998  0.30000001  0.35372150
   0.89999998  0.50000000  0.03584049
   0.89999998  0.50000000  0.11069997
   0.89999998  0.50000000  0.18473086
   0.89999998  0.50000000  0.25766895
   0.89999998  0.50000000  0.35372150
   0.89999998  0.69999999  0.03584049
   0.89999998  0.69999999  0.11069997
   0.89999998  0.69999999  0.18473086
   0.89999998  0.69999999  0.25766895
   0.89999998  0.69999999  0.35372150
   0.89999998  0.89999998  0.03584049
   0.89999998  0.89999998  0.11069997
   0.89999998  0.89999998  0.18473086
   0.89999998  0.89999998  0.25766895
   0.89999998  0.89999998  0.35372150
Direct configuration=     4
  -0.00000000  0.00000000 -0.03543500
  -0.00000000 -0.00000000  0.07029288
   0.00000000  0.00000000  0.14806262
  -0.00000000  0.00000000  0.22204756
   0.00000000  0.00000000  0.30581576
  -0.00000000  0.20000000 -0.03543500
   0.00000000  0.20000000  0.07029288
   0.00000000  0.20000000  0.14806262
   0.00000000  0.20000000  0.22204756
   0.00000000  0.20000000  0.30581576
  -0.00000000  0.40000001 -0.03543500
  -0.00000000  0.40000001  0.07029288
   0.00000000  0.40000001  0.14806262
  -0.00000000  0.40000001  0.22204756
  -0.00000000  0.40000001  0.30581576
  -0.00000000  0.60000002 -0.03543500
  -0.00000000  0.60000002  0.07029288
   0.00000000  0.60000002  0.14806262
  -0.00000000  0.60000002  0.22204756
  -0.00000000  0.60000002  0.30581576
  -0.00000000  0.80000001 -0.03543500
  -0.00000000  0.80000001  0.07029288
   0.00000000  0.80000001  0.14806262
  -0.00000000  0.80000001  0.22204756
   0.00000000  0.80000001  0.30581576
   0.20000000  0.00000000 -0.03543500
   0.20000000 -0.00000000  0.07029288
   0.20000000  0.00000000  0.14806262
   0.20000000  0.00000000  0.22204756
   0.20000000  0.00000000  0.30581576
   0.20000000  0.20000000 -0.03543500