 254 254   0   0
  0.2268316E+02  0.1514622E-08  0.1514622E-08  0.2900000E-08  0.5000000E-15
   1.0000000000000000E-004
  CAR 
 NiAl                                    
      5.83895026    -23.00626021  301     -0.67112848      1.00000000
    -23.006  0.0000E+00  0.0000E+00
    -22.910  0.0000E+00  0.0000E+00
    -22.814  0.0000E+00  0.0000E+00
    -22.718  0.0000E+00  0.0000E+00
    -22.622  0.0000E+00  0.0000E+00
    -22.526  0.0000E+00  0.0000E+00
    -22.429  0.0000E+00  0.0000E+00
    -22.333  0.0000E+00  0.0000E+00
    -22.237  0.0000E+00  0.0000E+00
    -22.141  0.0000E+00  0.0000E+00
    -22.045  0.0000E+00  0.0000E+00
    -21.949  0.7559E-11  0.7268E-12
    -21.852  0.8735E-04  0.8398E-05
    -21.756  0.8600E+00  0.8270E-01
    -21.660  0.1656E+02  0.1675E+01
    -21.564  0.3378E+01  0.2000E+01
    -21.468  0.2209E-02  0.2000E+01
    -21.372  0.1386E-08  0.2000E+01
    -21.276  0.0000E+00  0.2000E+01
    -21.179  0.0000E+00  0.2000E+01
    -21.083  0.0000E+00  0.2000E+01
    -20.987  0.0000E+00  0.2000E+01
    -20.891  0.0000E+00  0.2000E+01
    -20.795  0.0000E+00  0.2000E+01
    -20.699  0.0000E+00  0.2000E+01
    -20.602  0.0000E+00  0.2000E+01
    -20.506  0.0000E+00  0.2000E+01
    -20.410  0.0000E+00  0.2000E+01
    -20.314  0.0000E+00  0.2000E+01
    -20.218  0.0000E+00  0.2000E+01
    -20.122  0.0000E+00  0.2000E+01
    -20.026  0.0000E+00  0.2000E+01
    -19.929  0.0000E+00  0.2000E+01
    -19.833  0.0000E+00  0.2000E+01
    -19.737  0.0000E+00  0.2000E+01
    -19.641  0.0000E+00  0.2000E+01
    -19.545  0.0000E+00  0.2000E+01
    -19.449  0.0000E+00  0.2000E+01
    -19.353  0.0000E+00  0.2000E+01
    -19.256  0.0000E+00  0.2000E+01
    -19.160  0.0000E+00  0.2000E+01
    -19.064  0.0000E+00  0.2000E+01
    -18.968  0.0000E+00  0.2000E+01
    -18.872  0.0000E+00  0.2000E+01
    -18.776  0.0000E+00  0.2000E+01
    -18.679  0.0000E+00  0.2000E+01
    -18.583  0.0000E+00  0.2000E+01
    -18.487  0.0000E+00  0.2000E+01
    -18.391  0.0000E+00  0.2000E+01
    -18.295  0.0000E+00  0.2000E+01
    -18.199  0.0000E+00  0.2000E+01
    -18.103  0.0000E+00  0.2000E+01
    -18.006  0.0000E+00  0.2000E+01
    -17.910  0.0000E+00  0.2000E+01
    -17.814  0.0000E+00  0.2000E+01
    -17.718  0.0000E+00  0.2000E+01
    -17.622  0.0000E+00  0.2000E+01
    -17.526  0.0000E+00  0.2000E+01
    -17.430  0.0000E+00  0.2000E+01
    -17.333  0.0000E+00  0.2000E+01
    -17.237  0.0000E+00  0.2000E+01
    -17.141  0.0000E+00  0.2000E+01
    -17.045  0.0000E+00  0.2000E+01
    -16.949  0.0000E+00  0.2000E+01
    -16.853  0.0000E+00  0.2000E+01
    -16.756  0.0000E+00  0.2000E+01
    -16.660  0.0000E+00  0.2000E+01
    -16.564  0.0000E+00  0.2000E+01
    -16.468  0.0000E+00  0.2000E+01
    -16.372  0.0000E+00  0.2000E+01
    -16.276  0.0000E+00  0.2000E+01
    -16.180  0.0000E+00  0.2000E+01
    -16.083  0.0000E+00  0.2000E+01
    -15.987  0.0000E+00  0.2000E+01
    -15.891  0.0000E+00  0.2000E+01
    -15.795  0.0000E+00  0.2000E+01
    -15.699  0.0000E+00  0.2000E+01
    -15.603  0.0000E+00  0.2000E+01
    -15.507  0.0000E+00  0.2000E+01
    -15.410  0.0000E+00  0.2000E+01
    -15.314  0.0000E+00  0.2000E+01
    -15.218  0.1054E-10  0.2000E+01
    -15.122  0.1079E-03  0.2000E+01
    -15.026  0.9474E+00  0.2091E+01
    -14.930  0.1670E+02  0.3697E+01
    -14.833  0.3150E+01  0.4000E+01
    -14.737  0.1843E-02  0.4000E+01
    -14.641  0.1026E-08  0.4000E+01
    -14.545  0.0000E+00  0.4000E+01
    -14.449  0.0000E+00  0.4000E+01
    -14.353  0.0000E+00  0.4000E+01
    -14.257  0.0000E+00  0.4000E+01
    -14.160  0.0000E+00  0.4000E+01
    -14.064  0.0000E+00  0.4000E+01
    -13.968  0.0000E+00  0.4000E+01
    -13.872  0.0000E+00  0.4000E+01
    -13.776  0.0000E+00  0.4000E+01
    -13.680  0.0000E+00  0.4000E+01
    -13.583  0.0000E+00  0.4000E+01
    -13.487  0.0000E+00  0.4000E+01
    -13.391  0.0000E+00  0.4000E+01
    -13.295  0.0000E+00  0.4000E+01
    -13.199  0.0000E+00  0.4000E+01
    -13.103  0.0000E+00  0.4000E+01
    -13.007  0.0000E+00  0.4000E+01
    -12.910  0.0000E+00  0.4000E+01
    -12.814  0.0000E+00  0.4000E+01
    -12.718  0.0000E+00  0.4000E+01
    -12.622  0.0000E+00  0.4000E+01
    -12.526  0.0000E+00  0.4000E+01
    -12.430  0.0000E+00  0.4000E+01
    -12.334  0.0000E+00  0.4000E+01
    -12.237  0.0000E+00  0.4000E+01
    -12.141  0.0000E+00  0.4000E+01
    -12.045  0.0000E+00  0.4000E+01
    -11.949  0.0000E+00  0.4000E+01
    -11.853  0.0000E+00  0.4000E+01
    -11.757  0.0000E+00  0.4000E+01
    -11.660  0.0000E+00  0.4000E+01
    -11.564  0.0000E+00  0.4000E+01
    -11.468  0.0000E+00  0.4000E+01
    -11.372  0.0000E+00  0.4000E+01
    -11.276  0.0000E+00  0.4000E+01
    -11.180  0.0000E+00  0.4000E+01
    -11.084  0.0000E+00  0.4000E+01
    -10.987  0.0000E+00  0.4000E+01
    -10.891  0.0000E+00  0.4000E+01
    -10.795  0.0000E+00  0.4000E+01
    -10.699  0.0000E+00  0.4000E+01
    -10.603  0.0000E+00  0.4000E+01
    -10.507  0.0000E+00  0.4000E+01
    -10.411  0.0000E+00  0.4000E+01
    -10.314  0.0000E+00  0.4000E+01
    -10.218  0.0000E+00  0.4000E+01
    -10.122  0.0000E+00  0.4000E+01
    -10.026  0.0000E+00  0.4000E+01
     -9.930  0.0000E+00  0.4000E+01
     -9.834  0.0000E+00  0.4000E+01
     -9.737  0.0000E+00  0.4000E+01
     -9.641  0.0000E+00  0.4000E+01
     -9.545  0.0000E+00  0.4000E+01
     -9.449  0.1624E-08  0.4000E+01
     -9.353  0.1381E-02  0.4000E+01
     -9.257  0.1185E+01  0.4114E+01
     -9.161  0.3888E+01  0.4488E+01
     -9.064  0.1098E+01  0.4594E+01
     -8.968  0.2411E+02  0.6912E+01
     -8.872  0.6113E+01  0.7499E+01
     -8.776  0.9233E-01  0.7508E+01
     -8.680  0.3676E+01  0.7862E+01
     -8.584  0.5570E+01  0.8397E+01
     -8.488  0.3626E+02  0.1188E+02
     -8.391  0.2251E+02  0.1405E+02
     -8.295  0.2386E+02  0.1634E+02
     -8.199  0.6833E+01  0.1700E+02
     -8.103  0.6608E+00  0.1706E+02
     -8.007  0.2285E+02  0.1926E+02
     -7.911  0.8513E+01  0.2008E+02
     -7.814  0.2043E+02  0.2204E+02
     -7.718  0.2388E+02  0.2434E+02
     -7.622  0.7526E+02  0.3158E+02
     -7.526  0.9608E+01  0.3250E+02
     -7.430  0.5892E-02  0.3250E+02
     -7.334  0.1649E+01  0.3266E+02
     -7.238  0.4579E+02  0.3706E+02
     -7.141  0.7344E+02  0.4412E+02
     -7.045  0.1370E+02  0.4544E+02
     -6.949  0.2103E+02  0.4746E+02
     -6.853  0.7520E+01  0.4819E+02
     -6.757  0.2853E+02  0.5093E+02
     -6.661  0.3043E+02  0.5385E+02
     -6.564  0.3781E+02  0.5749E+02
     -6.468  0.7321E+02  0.6453E+02
     -6.372  0.4584E+02  0.6894E+02
     -6.276  0.1521E+02  0.7040E+02
     -6.180  0.5006E+02  0.7521E+02
     -6.084  0.8897E+02  0.8377E+02
     -5.988  0.6793E+02  0.9030E+02
     -5.891  0.1732E+02  0.9197E+02
     -5.795  0.4531E+01  0.9240E+02
     -5.699  0.2360E+02  0.9467E+02
     -5.603  0.6072E+02  0.1005E+03
     -5.507  0.1564E+03  0.1155E+03
     -5.411  0.5177E+02  0.1205E+03
     -5.315  0.6477E+02  0.1268E+03
     -5.218  0.1155E+03  0.1379E+03
     -5.122  0.1000E+03  0.1475E+03
     -5.026  0.6138E+02  0.1534E+03
     -4.930  0.5327E+02  0.1585E+03
     -4.834  0.2558E+03  0.1831E+03
     -4.738  0.1639E+03  0.1989E+03
     -4.641  0.2206E+03  0.2201E+03
     -4.545  0.2259E+03  0.2418E+03
     -4.449  0.3059E+03  0.2712E+03
     -4.353  0.2639E+03  0.2966E+03
     -4.257  0.2895E+03  0.3244E+03
     -4.161  0.1804E+03  0.3417E+03
     -4.065  0.4347E+03  0.3835E+03
     -3.968  0.4368E+03  0.4255E+03
     -3.872  0.5136E+03  0.4749E+03
     -3.776  0.4151E+03  0.5148E+03
     -3.680  0.4636E+03  0.5594E+03
     -3.584  0.4048E+03  0.5983E+03
     -3.488  0.3565E+03  0.6326E+03
     -3.392  0.3348E+03  0.6648E+03
     -3.295  0.4469E+03  0.7078E+03
     -3.199  0.5215E+03  0.7579E+03
     -3.103  0.3766E+03  0.7941E+03
     -3.007  0.4504E+03  0.8374E+03
     -2.911  0.6145E+03  0.8965E+03
     -2.815  0.4843E+03  0.9431E+03
     -2.718  0.5583E+03  0.9968E+03
     -2.622  0.5402E+03  0.1049E+04
     -2.526  0.6951E+03  0.1116E+04
     -2.430  0.7323E+03  0.1186E+04
     -2.334  0.9171E+03  0.1274E+04
     -2.238  0.8069E+03  0.1352E+04
     -2.142  0.8679E+03  0.1435E+04
     -2.045  0.9212E+03  0.1524E+04
     -1.949  0.5915E+03  0.1581E+04
     -1.853  0.6078E+03  0.1639E+04
     -1.757  0.5469E+03  0.1692E+04
     -1.661  0.5288E+03  0.1742E+04
     -1.565  0.6170E+03  0.1802E+04
     -1.469  0.8381E+03  0.1882E+04
     -1.372  0.7109E+03  0.1951E+04
     -1.276  0.4695E+03  0.1996E+04
     -1.180  0.7633E+03  0.2069E+04
     -1.084  0.7524E+03  0.2142E+04
     -0.988  0.8822E+03  0.2226E+04
     -0.892  0.6273E+03  0.2287E+04
     -0.795  0.9032E+03  0.2374E+04
     -0.699  0.1259E+04  0.2495E+04
     -0.603  0.1113E+04  0.2602E+04
     -0.507  0.5043E+03  0.2650E+04
     -0.411  0.1863E+03  0.2668E+04
     -0.315  0.1208E+03  0.2680E+04
     -0.219  0.1566E+03  0.2695E+04
     -0.122  0.1699E+03  0.2711E+04
     -0.026  0.8752E+02  0.2719E+04
      0.070  0.4425E+02  0.2724E+04
      0.166  0.4908E+02  0.2728E+04
      0.262  0.3700E+02  0.2732E+04
      0.358  0.1448E+03  0.2746E+04
      0.455  0.8270E+02  0.2754E+04
      0.551  0.9678E+02  0.2763E+04
      0.647  0.6705E+02  0.2770E+04
      0.743  0.1130E+03  0.2780E+04
      0.839  0.1446E+03  0.2794E+04
      0.935  0.7838E+02  0.2802E+04
      1.031  0.1406E+02  0.2803E+04
      1.128  0.6446E+02  0.2809E+04
      1.224  0.1320E+03  0.2822E+04
      1.320  0.2032E+02  0.2824E+04
      1.416  0.5295E+02  0.2829E+04
      1.512  0.1139E+03  0.2840E+04
      1.608  0.8943E+02  0.2849E+04
      1.704  0.7282E+02  0.2856E+04
      1.801  0.1017E+03  0.2866E+04
      1.897  0.7772E+02  0.2873E+04
      1.993  0.3376E+02  0.2876E+04
      2.089  0.8428E+02  0.2884E+04
      2.185  0.1361E+03  0.2897E+04
      2.281  0.8082E+02  0.2905E+04
      2.378  0.2410E+02  0.2908E+04
      2.474  0.6614E+02  0.2914E+04
      2.570  0.3410E+02  0.2917E+04
      2.666  0.1064E+02  0.2918E+04
      2.762  0.4360E+02  0.2922E+04
      2.858  0.8448E+02  0.2931E+04
      2.954  0.2228E+03  0.2952E+04
      3.051  0.1258E+03  0.2964E+04
      3.147  0.2072E+02  0.2966E+04
      3.243  0.2541E+02  0.2968E+04
      3.339  0.8478E+02  0.2977E+04
      3.435  0.7129E+02  0.2983E+04
      3.531  0.2278E+02  0.2986E+04
      3.627  0.9406E+02  0.2995E+04
      3.724  0.8769E+01  0.2996E+04
      3.820  0.2131E+02  0.2998E+04
      3.916  0.9961E+01  0.2999E+04
      4.012  0.4702E+02  0.3003E+04
      4.108  0.6503E+02  0.3009E+04
      4.204  0.3014E+02  0.3012E+04
      4.301  0.7379E+02  0.3019E+04
      4.397  0.6072E+02  0.3025E+04
      4.493  0.7072E+02  0.3032E+04
      4.589  0.6201E+02  0.3038E+04
      4.685  0.8799E+00  0.3038E+04
      4.781  0.4915E-04  0.3038E+04
      4.877  0.3750E-11  0.3038E+04
      4.974  0.0000E+00  0.3038E+04
      5.070  0.0000E+00  0.3038E+04
      5.166  0.0000E+00  0.3038E+04
      5.262  0.0000E+00  0.3038E+04
      5.358  0.0000E+00  0.3038E+04
      5.454  0.0000E+00  0.3038E+04
      5.550  0.0000E+00  0.3038E+04
      5.647  0.0000E+00  0.3038E+04
      5.743  0.0000E+00  0.3038E+04
      5.839  0.0000E+00  0.3038E+04
