  254  254    1    1
  0.2268316E+02  0.1514622E-08  0.1514622E-08  0.2900000E-08  0.5000000E-15
   1.0000000000000000E-004
  CAR 
 NiAl                                    
   2532      4   1519
 
  0.1262379E-14  0.1262379E-14  0.1262379E-14  0.2500000E+00
    1      -21.695114   1.000000
    2      -14.966068   1.000000
    3       -9.230369   1.000000
    4       -8.700752   1.000000
    5       -8.322680   1.000000
    6       -8.322645   1.000000
    7       -8.322627   1.000000
    8       -8.322573   1.000000
    9       -8.322568   1.000000
   10       -8.322487   1.000000
   11       -7.871707   1.000000
   12       -7.816555   1.000000
   13       -7.816545   1.000000
   14       -7.816509   1.000000
   15       -7.816490   1.000000
   16       -7.816439   1.000000
   17       -7.816311   1.000000
   18       -7.028172   1.000000
   19       -7.028148   1.000000
   20       -7.028129   1.000000
   21       -7.028066   1.000000
   22       -7.028002   1.000000
   23       -7.027853   1.000000
   24       -6.841228   1.000000
   25       -6.682221   1.000000
   26       -6.682206   1.000000
   27       -6.682195   1.000000
   28       -6.682153   1.000000
   29       -6.682114   1.000000
   30       -6.682110   1.000000
   31       -6.259510   1.000000
   32       -6.259491   1.000000
   33       -6.259482   1.000000
   34       -6.259427   1.000000
   35       -6.259392   1.000000
   36       -6.259383   1.000000
   37       -6.056210   1.000000
   38       -6.056191   1.000000
   39       -6.056176   1.000000
   40       -6.056005   1.000000
   41       -6.055963   1.000000
   42       -6.055711   1.000000
   43       -6.051568   1.000000
   44       -6.051552   1.000000
   45       -6.051546   1.000000
   46       -6.051530   1.000000
   47       -6.051523   1.000000
   48       -6.051516   1.000000
   49       -5.963206   1.000000
   50       -5.816353   1.000000
   51       -5.716495   1.000000
   52       -5.716487   1.000000
   53       -5.716476   1.000000
   54       -5.716470   1.000000
   55       -5.716461   1.000000
   56       -5.716451   1.000000
   57       -5.626316   1.000000
   58       -5.626294   1.000000
   59       -5.626284   1.000000
   60       -5.626235   1.000000
   61       -5.626201   1.000000
   62       -5.626192   1.000000
   63       -5.259054   1.000000
   64       -5.259047   1.000000
   65       -5.259036   1.000000
   66       -5.259029   1.000000
   67       -5.259009   1.000000
   68       -5.258997   1.000000
   69       -5.161147   1.000000
   70       -5.105368   1.000000
   71       -5.105338   1.000000
   72       -5.105334   1.000000
   73       -5.105140   1.000000
   74       -5.105092   1.000000
   75       -5.104851   1.000000
   76       -4.971330   1.000000
   77       -4.913763   1.000000
   78       -4.913760   1.000000
   79       -4.913701   1.000000
   80       -4.895111   1.000000
   81       -4.895090   1.000000
   82       -4.895072   1.000000
   83       -4.895020   1.000000
   84       -4.894997   1.000000
   85       -4.894976   1.000000
   86       -4.791233   1.000000
   87       -4.791221   1.000000
   88       -4.791205   1.000000
   89       -4.791193   1.000000
   90       -4.791155   1.000000
   91       -4.791135   1.000000
   92       -4.757682   1.000000
   93       -4.757675   1.000000
   94       -4.757579   1.000000
   95       -4.681603   1.000000
   96       -4.681579   1.000000
   97       -4.681565   1.000000
   98       -4.681554   1.000000
   99       -4.681542   1.000000
  100       -4.681494   1.000000
  101       -4.681488   1.000000
  102       -4.681467   1.000000
  103       -4.681461   1.000000
  104       -4.681455   1.000000
  105       -4.681442   1.000000
  106       -4.681436   1.000000
  107       -4.635713   1.000000
  108       -4.635713   1.000000
  109       -4.635644   1.000000
  110       -4.549308   1.000000
  111       -4.549306   1.000000
  112       -4.549205   1.000000
  113       -4.527413   1.000000
  114       -4.527384   1.000000
  115       -4.527353   1.000000
  116       -4.527243   1.000000
  117       -4.527203   1.000000
  118       -4.526967   1.000000
  119       -4.483108   1.000000
  120       -4.483095   1.000000
  121       -4.483088   1.000000
  122       -4.483077   1.000000
  123       -4.483050   1.000000
  124       -4.483046   1.000000
  125       -4.483007   1.000000
  126       -4.483001   1.000000
  127       -4.482989   1.000000
  128       -4.482970   1.000000
  129       -4.482955   1.000000
  130       -4.482949   1.000000
  131       -4.448660   1.000000
  132       -4.448621   1.000000
  133       -4.448588   1.000000
  134       -4.448587   1.000000
  135       -4.448562   1.000000
  136       -4.448545   1.000000
  137       -4.448523   1.000000
  138       -4.448499   1.000000
  139       -4.448491   1.000000
  140       -4.448458   1.000000
  141       -4.448442   1.000000
  142       -4.448435   1.000000
  143       -4.420475   1.000000
  144       -4.420361   1.000000
  145       -4.403725   1.000000
  146       -4.403709   1.000000
  147       -4.403648   1.000000
  148       -4.403614   1.000000
  149       -4.403562   1.000000
  150       -4.403405   1.000000
  151       -4.367386   1.000000
  152       -4.367380   1.000000
  153       -4.367368   1.000000
  154       -4.367362   1.000000
  155       -4.367271   1.000000
  156       -4.367259   1.000000
  157       -4.347582   1.000000
  158       -4.347579   1.000000
  159       -4.347476   1.000000
  160       -4.310604   1.000000
  161       -4.310586   1.000000
  162       -4.310573   1.000000
  163       -4.310553   1.000000
  164       -4.310523   1.000000
  165       -4.310497   1.000000
  166       -4.310494   1.000000
  167       -4.310479   1.000000
  168       -4.310455   1.000000
  169       -4.310454   1.000000
  170       -4.310448   1.000000
  171       -4.310423   1.000000
  172       -4.240430   1.000000
  173       -4.240411   1.000000
  174       -4.240379   1.000000
  175       -4.240329   1.000000
  176       -4.240319   1.000000
  177       -4.240287   1.000000
  178       -4.201325   1.000000
  179       -4.201324   1.000000
  180       -4.201155   1.000000
  181       -4.133009   1.000000
  182       -4.133008   1.000000
  183       -4.132896   1.000000
  184       -4.110657   1.000000
  185       -4.110634   1.000000
  186       -4.110617   1.000000
  187       -4.110598   1.000000
  188       -4.110567   1.000000
  189       -4.110546   1.000000
  190       -4.110538   1.000000
  191       -4.110524   1.000000
  192       -4.110519   1.000000
  193       -4.110502   1.000000
  194       -4.110476   1.000000
  195       -4.110464   1.000000
  196       -4.047558   1.000000
  197       -4.047556   1.000000
  198       -4.047419   1.000000
  199       -3.993168   1.000000
  200       -3.993166   1.000000
  201       -3.993018   1.000000
  202       -3.990685   1.000000
  203       -3.990679   1.000000
  204       -3.990672   1.000000
  205       -3.990666   1.000000
  206       -3.990535   1.000000
  207       -3.990520   1.000000
  208       -3.921476   1.000000
  209       -3.921421   1.000000
  210       -3.921385   1.000000
  211       -3.921359   1.000000
  212       -3.921356   1.000000
  213       -3.921316   1.000000
  214       -3.921258   1.000000
  215       -3.921256   1.000000
  216       -3.921241   1.000000
  217       -3.921166   1.000000
  218       -3.921137   1.000000
  219       -3.921095   1.000000
  220       -3.915230   1.000000
  221       -3.915218   1.000000
  222       -3.915187   1.000000
  223       -3.915176   1.000000
  224       -3.915080   1.000000
  225       -3.915039   1.000000
  226       -3.862232   1.000000
  227       -3.862229   1.000000
  228       -3.862191   1.000000
  229       -3.862182   1.000000
  230       -3.862142   1.000000
  231       -3.862130   1.000000
  232       -3.862125   1.000000
  233       -3.862119   1.000000
  234       -3.862097   1.000000
  235       -3.862084   1.000000
  236       -3.862070   1.000000
  237       -3.862053   1.000000
  238       -3.839203   1.000000
  239       -3.839189   1.000000
  240       -3.839130   1.000000
  241       -3.839089   1.000000
  242       -3.839080   1.000000
  243       -3.839053   1.000000
  244       -3.799810   1.000000
  245       -3.799796   1.000000
  246       -3.799763   1.000000
  247       -3.799760   1.000000
  248       -3.799691   1.000000
  249       -3.799656   1.000000
  250       -3.795940   1.000000
  251       -3.795936   1.000000
  252       -3.795883   1.000000
  253       -3.795864   1.000000
  254       -3.787651   1.000000
  255       -3.787642   1.000000
  256       -3.733271   1.000000
  257       -3.733257   1.000000
  258       -3.733228   1.000000
  259       -3.733224   1.000000
  260       -3.733166   1.000000
  261       -3.733123   1.000000
  262       -3.733113   1.000000
  263       -3.733102   1.000000
  264       -3.733080   1.000000
  265       -3.733027   1.000000
  266       -3.733001   1.000000
  267       -3.732933   1.000000
  268       -3.724396   1.000000
  269       -3.724396   1.000000
  270       -3.724293   1.000000
  271       -3.699982   1.000000
  272       -3.699978   1.000000
  273       -3.699895   1.000000
  274       -3.699874   1.000000
  275       -3.677705   1.000000
  276       -3.677694   1.000000
  277       -3.677686   1.000000
  278       -3.677674   1.000000
  279       -3.677520   1.000000
  280       -3.677485   1.000000
  281       -3.666313   1.000000
  282       -3.666312   1.000000
  283       -3.655989   1.000000
  284       -3.655982   1.000000
  285       -3.655885   1.000000
  286       -3.655873   1.000000
  287       -3.654171   1.000000
  288       -3.654169   1.000000
  289       -3.650963   1.000000
  290       -3.650952   1.000000
  291       -3.650898   1.000000
  292       -3.650826   1.000000
  293       -3.650810   1.000000
  294       -3.650801   1.000000
  295       -3.582302   1.000000
  296       -3.582294   1.000000
  297       -3.582045   1.000000
  298       -3.582044   1.000000
  299       -3.574747   1.000000
  300       -3.574737   1.000000
  301       -3.574705   1.000000
  302       -3.574699   1.000000
  303       -3.574627   1.000000
  304       -3.574617   1.000000
  305       -3.574599   1.000000
  306       -3.574574   1.000000
  307       -3.574561   1.000000
  308       -3.574551   1.000000
  309       -3.574541   1.000000
  310       -3.574514   1.000000
  311       -3.503218   1.000000
  312       -3.503204   1.000000
  313       -3.503133   1.000000
  314       -3.503085   1.000000
  315       -3.503071   1.000000
  316       -3.503047   1.000000
  317       -3.467066   1.000000
  318       -3.467036   1.000000
  319       -3.467017   1.000000
  320       -3.466993   1.000000
  321       -3.466955   1.000000
  322       -3.466945   1.000000
  323       -3.466914   1.000000
  324       -3.466894   1.000000
  325       -3.466880   1.000000
  326       -3.466847   1.000000
  327       -3.466817   1.000000
  328       -3.466774   1.000000
  329       -3.456477   1.000000
  330       -3.456452   1.000000
  331       -3.456377   1.000000
  332       -3.456345   1.000000
  333       -3.456335   1.000000
  334       -3.456299   1.000000
  335       -3.449132   1.000000
  336       -3.449127   1.000000
  337       -3.449126   1.000000
  338       -3.449109   1.000000
  339       -3.449002   1.000000
  340       -3.448995   1.000000
  341       -3.361196   1.000000
  342       -3.361194   1.000000
  343       -3.361164   1.000000
  344       -3.321491   1.000000
  345       -3.321472   1.000000
  346       -3.321391   1.000000
  347       -3.321365   1.000000
  348       -3.321352   1.000000
  349       -3.321320   1.000000
  350       -3.309954   1.000000
  351       -3.309947   1.000000
  352       -3.286988   1.000000
  353       -3.286961   1.000000
  354       -3.286940   1.000000
  355       -3.286912   1.000000
  356       -3.286893   1.000000
  357       -3.286885   1.000000
  358       -3.286854   1.000000
  359       -3.286840   1.000000
  360       -3.286831   1.000000
  361       -3.286814   1.000000
  362       -3.286784   1.000000
  363       -3.286760   1.000000
  364       -3.277601   1.000000
  365       -3.277593   1.000000
  366       -3.215794   1.000000
  367       -3.215775   1.000000
  368       -3.215761   1.000000
  369       -3.215743   1.000000
  370       -3.215729   1.000000
  371       -3.215687   1.000000
  372       -3.190567   1.000000
  373       -3.190552   1.000000
  374       -3.190457   1.000000
  375       -3.190440   1.000000
  376       -3.190431   1.000000
  377       -3.190392   1.000000
  378       -3.190006   1.000000
  379       -3.189979   1.000000
  380       -3.189970   1.000000
  381       -3.189955   1.000000
  382       -3.189892   1.000000
  383       -3.189827   1.000000
  384       -3.138377   1.000000
  385       -3.138347   1.000000
  386       -3.138343   1.000000
  387       -3.138326   1.000000
  388       -3.138305   1.000000
  389       -3.138305   1.000000
  390       -3.138291   1.000000
  391       -3.138253   1.000000
  392       -3.138249   1.000000
  393       -3.138237   1.000000
  394       -3.138228   1.000000
  395       -3.138215   1.000000
  396       -3.083234   1.000000
  397       -3.083211   1.000000
  398       -3.083112   1.000000
  399       -3.083109   1.000000
  400       -3.083093   1.000000
  401       -3.083057   1.000000
  402       -3.024111   1.000000
  403       -3.024088   1.000000
  404       -3.023989   1.000000
  405       -3.023966   1.000000
  406       -3.023940   1.000000
  407       -3.023905   1.000000
  408       -3.014013   1.000000
  409       -3.013995   1.000000
  410       -3.013975   1.000000
  411       -3.013935   1.000000
  412       -3.013904   1.000000
  413       -3.013870   1.000000
  414       -2.987649   1.000000
  415       -2.987643   1.000000
  416       -2.987639   1.000000
  417       -2.987629   1.000000
  418       -2.987608   1.000000
  419       -2.987582   1.000000
  420       -2.981203   1.000000
  421       -2.981178   1.000000
  422       -2.981073   1.000000
  423       -2.981049   1.000000
  424       -2.981027   1.000000
  425       -2.981000   1.000000
  426       -2.957872   1.000000
  427       -2.957855   1.000000
  428       -2.957853   1.000000
  429       -2.957847   1.000000
  430       -2.957840   1.000000
  431       -2.957822   1.000000
  432       -2.953782   1.000000
  433       -2.953752   1.000000
  434       -2.953737   1.000000
  435       -2.953729   1.000000
  436       -2.953717   1.000000
  437       -2.953707   1.000000
  438       -2.953685   1.000000
  439       -2.953677   1.000000
  440       -2.953661   1.000000
  441       -2.953641   1.000000
  442       -2.953626   1.000000
  443       -2.953622   1.000000
  444       -2.890137   1.000000
  445       -2.890133   1.000000
  446       -2.890089   1.000000
  447       -2.880667   1.000000
  448       -2.880652   1.000000
  449       -2.880646   1.000000
  450       -2.880633   1.000000
  451       -2.880619   1.000000
  452       -2.880606   1.000000
  453       -2.880595   1.000000
  454       -2.880566   1.000000
  455       -2.880562   1.000000
  456       -2.880555   1.000000
  457       -2.880543   1.000000
  458       -2.880521   1.000000
  459       -2.877060   1.000000
  460       -2.877045   1.000000
  461       -2.877015   1.000000
  462       -2.876997   1.000000
  463       -2.876930   1.000000
  464       -2.876912   1.000000
  465       -2.839605   1.000000
  466       -2.839598   1.000000
  467       -2.839494   1.000000
  468       -2.839476   1.000000
  469       -2.789614   1.000000
  470       -2.789586   1.000000
  471       -2.789582   1.000000
  472       -2.789549   1.000000
  473       -2.789535   1.000000
  474       -2.789524   1.000000
  475       -2.786332   1.000000
  476       -2.786330   1.000000
  477       -2.784150   1.000000
  478       -2.784127   1.000000
  479       -2.784116   1.000000
  480       -2.784107   1.000000
  481       -2.784069   1.000000
  482       -2.784043   1.000000
  483       -2.783587   1.000000
  484       -2.783564   1.000000
  485       -2.783455   1.000000
  486       -2.783449   1.000000
  487       -2.783431   1.000000
  488       -2.783411   1.000000
  489       -2.777927   1.000000
  490       -2.777914   1.000000
  491       -2.777902   1.000000
  492       -2.777890   1.000000
  493       -2.777881   1.000000
  494       -2.777861   1.000000
  495       -2.777854   1.000000
  496       -2.777845   1.000000
  497       -2.777833   1.000000
  498       -2.777815   1.000000
  499       -2.777791   1.000000
  500       -2.777783   1.000000
  501       -2.725625   1.000000
  502       -2.725571   1.000000
  503       -2.725503   1.000000
  504       -2.725502   1.000000
  505       -2.725423   1.000000
  506       -2.725400   1.000000
  507       -2.717696   1.000000
  508       -2.717676   1.000000
  509       -2.717647   1.000000
  510       -2.717641   1.000000
  511       -2.717630   1.000000
  512       -2.717621   1.000000
  513       -2.691934   1.000000
  514       -2.691933   1.000000
  515       -2.691725   1.000000
  516       -2.691713   1.000000
  517       -2.681616   1.000000
  518       -2.663354   1.000000
  519       -2.663334   1.000000
  520       -2.663252   1.000000
  521       -2.663215   1.000000
  522       -2.663204   1.000000
  523       -2.663167   1.000000
  524       -2.642340   1.000000
  525       -2.618813   1.000000
  526       -2.618788   1.000000
  527       -2.618766   1.000000
  528       -2.618762   1.000000
  529       -2.618745   1.000000
  530       -2.618730   1.000000
  531       -2.618715   1.000000
  532       -2.618705   1.000000
  533       -2.618692   1.000000
  534       -2.618683   1.000000
  535       -2.618665   1.000000
  536       -2.618650   1.000000
  537       -2.601572   1.000000
  538       -2.601548   1.000000
  539       -2.601485   1.000000
  540       -2.601422   1.000000
  541       -2.601413   1.000000
  542       -2.601360   1.000000
  543       -2.575659   1.000000
  544       -2.575657   1.000000
  545       -2.575513   1.000000
  546       -2.560486   1.000000
  547       -2.560450   1.000000
  548       -2.560357   1.000000
  549       -2.560339   1.000000
  550       -2.560259   1.000000
  551       -2.560202   1.000000
  552       -2.547045   1.000000
  553       -2.547029   1.000000
  554       -2.547027   1.000000
  555       -2.547007   1.000000
  556       -2.546987   1.000000
  557       -2.546979   1.000000
  558       -2.546962   1.000000
  559       -2.546949   1.000000
  560       -2.546937   1.000000
  561       -2.546931   1.000000
  562       -2.546922   1.000000
  563       -2.546911   1.000000
  564       -2.537667   1.000000
  565       -2.537636   1.000000
  566       -2.537603   1.000000
  567       -2.537555   1.000000
  568       -2.537541   1.000000
  569       -2.537512   1.000000
  570       -2.537089   1.000000
  571       -2.537012   1.000000
  572       -2.537002   1.000000
  573       -2.486378   1.000000
  574       -2.486366   1.000000
  575       -2.486342   1.000000
  576       -2.486323   1.000000
  577       -2.486266   1.000000
  578       -2.486253   1.000000
  579       -2.485058   1.000000
  580       -2.484893   1.000000
  581       -2.483457   1.000000
  582       -2.483237   1.000000
  583       -2.471721   1.000000
  584       -2.471689   1.000000
  585       -2.471673   1.000000
  586       -2.471644   1.000000
  587       -2.471538   1.000000
  588       -2.471504   1.000000
  589       -2.453679   1.000000
  590       -2.443164   1.000000
  591       -2.443158   1.000000
  592       -2.443152   1.000000
  593       -2.443148   1.000000
  594       -2.443147   1.000000
  595       -2.443136   1.000000
  596       -2.429866   1.000000
  597       -2.429855   1.000000
  598       -2.429850   1.000000
  599       -2.429837   1.000000
  600       -2.429790   1.000000
  601       -2.429775   1.000000
  602       -2.424702   1.000000
  603       -2.424701   1.000000
  604       -2.424522   1.000000
  605       -2.410950   1.000000
  606       -2.410879   1.000000
  607       -2.410860   1.000000
  608       -2.410847   1.000000
  609       -2.410821   1.000000
  610       -2.410806   1.000000
  611       -2.395426   1.000000
  612       -2.395205   1.000000
  613       -2.370505   1.000000
  614       -2.370491   1.000000
  615       -2.370452   1.000000
  616       -2.366417   1.000000
  617       -2.366396   1.000000
  618       -2.366378   1.000000
  619       -2.366354   1.000000
  620       -2.366258   1.000000
  621       -2.366250   1.000000
  622       -2.365970   1.000000
  623       -2.350614   1.000000
  624       -2.350436   1.000000
  625       -2.336089   1.000000
  626       -2.336016   1.000000
  627       -2.335965   1.000000
  628       -2.335925   1.000000
  629       -2.335877   1.000000
  630       -2.335870   1.000000
  631       -2.329326   1.000000
  632       -2.329316   1.000000
  633       -2.329297   1.000000
  634       -2.312414   1.000000
  635       -2.312408   1.000000
  636       -2.312365   1.000000
  637       -2.312356   1.000000
  638       -2.312261   1.000000
  639       -2.312207   1.000000
  640       -2.301238   1.000000
  641       -2.301161   1.000000
  642       -2.301159   1.000000
  643       -2.288713   1.000000
  644       -2.288493   1.000000
  645       -2.288236   1.000000
  646       -2.288224   1.000000
  647       -2.287430   1.000000
  648       -2.287429   1.000000
  649       -2.284160   1.000000
  650       -2.284150   1.000000
  651       -2.284143   1.000000
  652       -2.284109   1.000000
  653       -2.284092   1.000000
  654       -2.284087   1.000000
  655       -2.284059   1.000000
  656       -2.284054   1.000000
  657       -2.284046   1.000000
  658       -2.284026   1.000000
  659       -2.284012   1.000000
  660       -2.283966   1.000000
  661       -2.274890   1.000000
  662       -2.274881   1.000000
  663       -2.274873   1.000000
  664       -2.274851   1.000000
  665       -2.274752   1.000000
  666       -2.274729   1.000000
  667       -2.269409   1.000000
  668       -2.269400   1.000000
  669       -2.269383   1.000000
  670       -2.269365   1.000000
  671       -2.269271   1.000000
  672       -2.269255   1.000000
  673       -2.222961   1.000000
  674       -2.222955   1.000000
  675       -2.222934   1.000000
  676       -2.222911   1.000000
  677       -2.222783   1.000000
  678       -2.222773   1.000000
  679       -2.216843   1.000000
  680       -2.201003   1.000000
  681       -2.200963   1.000000
  682       -2.200932   1.000000
  683       -2.200917   1.000000
  684       -2.200888   1.000000
  685       -2.200879   1.000000
  686       -2.176283   1.000000
  687       -2.176282   1.000000
  688       -2.175256   1.000000
  689       -2.175252   1.000000
  690       -2.171160   1.000000
  691       -2.171142   1.000000
  692       -2.171121   1.000000
  693       -2.171115   1.000000
  694       -2.171089   1.000000
  695       -2.171070   1.000000
  696       -2.171045   1.000000
  697       -2.171039   1.000000
  698       -2.170993   1.000000
  699       -2.170969   1.000000
  700       -2.170897   1.000000
  701       -2.170842   1.000000
  702       -2.165610   1.000000
  703       -2.165404   1.000000
  704       -2.156972   1.000000
  705       -2.156954   1.000000
  706       -2.156860   1.000000
  707       -2.156845   1.000000
  708       -2.156813   1.000000
  709       -2.156804   1.000000
  710       -2.156793   1.000000
  711       -2.156749   1.000000
  712       -2.156735   1.000000
  713       -2.156712   1.000000
  714       -2.156659   1.000000
  715       -2.156625   1.000000
  716       -2.153682   1.000000
  717       -2.153466   1.000000
  718       -2.131049   1.000000
  719       -2.130981   1.000000
  720       -2.130887   1.000000
  721       -2.130830   1.000000
  722       -2.130821   1.000000
  723       -2.130787   1.000000
  724       -2.106487   1.000000
  725       -2.106468   1.000000
  726       -2.106454   1.000000
  727       -2.106440   1.000000
  728       -2.106413   1.000000
  729       -2.106382   1.000000
  730       -2.084812   1.000000
  731       -2.084793   1.000000
  732       -2.084755   1.000000
  733       -2.084735   1.000000
  734       -2.084724   1.000000
  735       -2.084716   1.000000
  736       -2.084696   1.000000
  737       -2.084688   1.000000
  738       -2.084613   1.000000
  739       -2.084591   1.000000
  740       -2.084550   1.000000
  741       -2.084508   1.000000
  742       -2.041427   1.000000
  743       -2.041394   1.000000
  744       -2.041276   1.000000
  745       -2.041227   1.000000
  746       -2.041202   1.000000
  747       -2.041180   1.000000
  748       -2.033947   1.000000
  749       -2.033934   1.000000
  750       -2.033897   1.000000
  751       -2.033878   1.000000
  752       -2.033866   1.000000
  753       -2.033778   1.000000
  754       -1.985862   1.000000
  755       -1.985852   1.000000
  756       -1.985845   1.000000
  757       -1.985825   1.000000
  758       -1.985815   1.000000
  759       -1.985804   1.000000
  760       -1.985789   1.000000
  761       -1.985771   1.000000
  762       -1.985706   1.000000
  763       -1.985698   1.000000
  764       -1.985679   1.000000
  765       -1.985674   1.000000
  766       -1.981993   1.000000
  767       -1.981979   1.000000
  768       -1.981925   1.000000
  769       -1.981889   1.000000
  770       -1.981875   1.000000
  771       -1.981859   1.000000
  772       -1.975434   1.000000
  773       -1.975419   1.000000
  774       -1.975348   1.000000
  775       -1.975310   1.000000
  776       -1.975299   1.000000
  777       -1.975279   1.000000
  778       -1.943548   1.000000
  779       -1.943466   1.000000
  780       -1.943463   1.000000
  781       -1.939809   1.000000
  782       -1.939774   1.000000
  783       -1.939660   1.000000
  784       -1.939635   1.000000
  785       -1.939603   1.000000
  786       -1.939570   1.000000
  787       -1.919118   1.000000
  788       -1.919104   1.000000
  789       -1.919077   1.000000
  790       -1.919056   1.000000
  791       -1.919046   1.000000
  792       -1.919025   1.000000
  793       -1.914878   1.000000
  794       -1.914846   1.000000
  795       -1.914728   1.000000
  796       -1.914700   1.000000
  797       -1.914679   1.000000
  798       -1.914666   1.000000
  799       -1.894112   1.000000
  800       -1.894078   1.000000
  801       -1.894023   1.000000
  802       -1.894017   1.000000
  803       -1.894004   1.000000
  804       -1.893982   1.000000
  805       -1.885745   1.000000
  806       -1.885727   1.000000
  807       -1.885676   1.000000
  808       -1.885664   1.000000
  809       -1.885614   1.000000
  810       -1.885601   1.000000
  811       -1.885577   1.000000
  812       -1.885562   1.000000
  813       -1.885461   1.000000
  814       -1.885447   1.000000
  815       -1.885419   1.000000
  816       -1.885398   1.000000
  817       -1.846682   1.000000
  818       -1.846677   1.000000
  819       -1.846626   1.000000
  820       -1.846622   1.000000
  821       -1.846590   1.000000
  822       -1.846580   1.000000
  823       -1.846542   1.000000
  824       -1.846534   1.000000
  825       -1.846443   1.000000
  826       -1.846415   1.000000
  827       -1.846392   1.000000
  828       -1.846384   1.000000
  829       -1.813268   1.000000
  830       -1.813235   1.000000
  831       -1.813104   1.000000
  832       -1.813072   1.000000
  833       -1.813054   1.000000
  834       -1.813002   1.000000
  835       -1.811818   1.000000
  836       -1.811761   1.000000
  837       -1.811756   1.000000
  838       -1.807840   1.000000
  839       -1.807833   1.000000
  840       -1.807808   1.000000
  841       -1.807796   1.000000
  842       -1.807782   1.000000
  843       -1.807776   1.000000
  844       -1.796321   1.000000
  845       -1.796301   1.000000
  846       -1.796213   1.000000
  847       -1.796183   1.000000
  848       -1.796164   1.000000
  849       -1.796132   1.000000
  850       -1.786350   1.000000
  851       -1.786211   1.000000
  852       -1.786094   1.000000
  853       -1.785779   1.000000
  854       -1.785719   1.000000
  855       -1.785406   1.000000
  856       -1.782355   1.000000
  857       -1.782313   1.000000
  858       -1.782301   1.000000
  859       -1.782278   1.000000
  860       -1.782254   1.000000
  861       -1.782233   1.000000
  862       -1.762924   1.000000
  863       -1.762882   1.000000
  864       -1.762881   1.000000
  865       -1.728405   1.000000
  866       -1.728393   1.000000
  867       -1.728351   1.000000
  868       -1.728294   1.000000
  869       -1.728292   1.000000
  870       -1.728252   1.000000
  871       -1.697822   1.000000
  872       -1.697812   1.000000
  873       -1.697768   1.000000
  874       -1.697759   1.000000
  875       -1.697741   1.000000
  876       -1.697735   1.000000
  877       -1.697726   1.000000
  878       -1.697714   1.000000
  879       -1.697708   1.000000
  880       -1.697685   1.000000
  881       -1.697678   1.000000
  882       -1.697667   1.000000
  883       -1.684653   1.000000
  884       -1.674789   1.000000
  885       -1.674567   1.000000
  886       -1.674462   1.000000
  887       -1.673734   1.000000
  888       -1.673702   1.000000
  889       -1.672811   1.000000
  890       -1.625650   1.000000
  891       -1.625645   1.000000
  892       -1.625508   1.000000
  893       -1.625503   1.000000
  894       -1.625490   1.000000
  895       -1.625458   1.000000
  896       -1.570595   1.000000
  897       -1.570576   1.000000
  898       -1.570576   1.000000
  899       -1.570567   1.000000
  900       -1.570552   1.000000
  901       -1.570550   1.000000