LAMMPS (24 Mar 2022)
OMP_NUM_THREADS environment is not set. Defaulting to 1 thread. (src/comm.cpp:98)
  using 1 OpenMP thread(s) per MPI task
ERROR: Cannot open file SlabAlO2_s19_iter_last_no_ox_lmp.data: No such file or directory (src/read_data.cpp:333)
Last command: read_data SlabAlO2_s19_iter_last_no_ox_lmp.data
