 254 254   0   0
  0.2268316E+02  0.1514622E-08  0.1514622E-08  0.2900000E-08  0.5000000E-15
   1.0000000000000000E-004
  CAR 
 NiAl                                    
      6.47348321    -32.74471582  301     -0.50692646      1.00000000
    -32.745  0.0000E+00  0.0000E+00
    -32.614  0.0000E+00  0.0000E+00
    -32.483  0.0000E+00  0.0000E+00
    -32.353  0.0000E+00  0.0000E+00
    -32.222  0.0000E+00  0.0000E+00
    -32.091  0.0000E+00  0.0000E+00
    -31.960  0.0000E+00  0.0000E+00
    -31.830  0.0000E+00  0.0000E+00
    -31.699  0.0000E+00  0.0000E+00
    -31.568  0.0000E+00  0.0000E+00
    -31.437  0.0000E+00  0.0000E+00
    -31.307  0.0000E+00  0.0000E+00
    -31.176  0.9732E-08  0.1272E-08
    -31.045  0.1347E+00  0.1761E-01
    -30.915  0.1374E+02  0.1814E+01
    -30.784  0.1420E+01  0.2000E+01
    -30.653  0.3934E-05  0.2000E+01
    -30.522  0.0000E+00  0.2000E+01
    -30.392  0.0000E+00  0.2000E+01
    -30.261  0.0000E+00  0.2000E+01
    -30.130  0.0000E+00  0.2000E+01
    -29.999  0.0000E+00  0.2000E+01
    -29.869  0.0000E+00  0.2000E+01
    -29.738  0.0000E+00  0.2000E+01
    -29.607  0.0000E+00  0.2000E+01
    -29.477  0.0000E+00  0.2000E+01
    -29.346  0.0000E+00  0.2000E+01
    -29.215  0.0000E+00  0.2000E+01
    -29.084  0.0000E+00  0.2000E+01
    -28.954  0.0000E+00  0.2000E+01
    -28.823  0.0000E+00  0.2000E+01
    -28.692  0.0000E+00  0.2000E+01
    -28.561  0.0000E+00  0.2000E+01
    -28.431  0.0000E+00  0.2000E+01
    -28.300  0.0000E+00  0.2000E+01
    -28.169  0.0000E+00  0.2000E+01
    -28.039  0.0000E+00  0.2000E+01
    -27.908  0.0000E+00  0.2000E+01
    -27.777  0.0000E+00  0.2000E+01
    -27.646  0.0000E+00  0.2000E+01
    -27.516  0.0000E+00  0.2000E+01
    -27.385  0.0000E+00  0.2000E+01
    -27.254  0.0000E+00  0.2000E+01
    -27.123  0.0000E+00  0.2000E+01
    -26.993  0.0000E+00  0.2000E+01
    -26.862  0.0000E+00  0.2000E+01
    -26.731  0.0000E+00  0.2000E+01
    -26.601  0.0000E+00  0.2000E+01
    -26.470  0.0000E+00  0.2000E+01
    -26.339  0.0000E+00  0.2000E+01
    -26.208  0.0000E+00  0.2000E+01
    -26.078  0.0000E+00  0.2000E+01
    -25.947  0.0000E+00  0.2000E+01
    -25.816  0.0000E+00  0.2000E+01
    -25.685  0.0000E+00  0.2000E+01
    -25.555  0.0000E+00  0.2000E+01
    -25.424  0.0000E+00  0.2000E+01
    -25.293  0.0000E+00  0.2000E+01
    -25.163  0.0000E+00  0.2000E+01
    -25.032  0.0000E+00  0.2000E+01
    -24.901  0.0000E+00  0.2000E+01
    -24.770  0.0000E+00  0.2000E+01
    -24.640  0.0000E+00  0.2000E+01
    -24.509  0.0000E+00  0.2000E+01
    -24.378  0.0000E+00  0.2000E+01
    -24.247  0.0000E+00  0.2000E+01
    -24.117  0.0000E+00  0.2000E+01
    -23.986  0.0000E+00  0.2000E+01
    -23.855  0.0000E+00  0.2000E+01
    -23.725  0.0000E+00  0.2000E+01
    -23.594  0.0000E+00  0.2000E+01
    -23.463  0.0000E+00  0.2000E+01
    -23.332  0.0000E+00  0.2000E+01
    -23.202  0.0000E+00  0.2000E+01
    -23.071  0.0000E+00  0.2000E+01
    -22.940  0.0000E+00  0.2000E+01
    -22.809  0.0000E+00  0.2000E+01
    -22.679  0.0000E+00  0.2000E+01
    -22.548  0.0000E+00  0.2000E+01
    -22.417  0.0000E+00  0.2000E+01
    -22.287  0.0000E+00  0.2000E+01
    -22.156  0.0000E+00  0.2000E+01
    -22.025  0.0000E+00  0.2000E+01
    -21.894  0.0000E+00  0.2000E+01
    -21.764  0.0000E+00  0.2000E+01
    -21.633  0.0000E+00  0.2000E+01
    -21.502  0.0000E+00  0.2000E+01
    -21.371  0.0000E+00  0.2000E+01
    -21.241  0.0000E+00  0.2000E+01
    -21.110  0.0000E+00  0.2000E+01
    -20.979  0.0000E+00  0.2000E+01
    -20.849  0.0000E+00  0.2000E+01
    -20.718  0.0000E+00  0.2000E+01
    -20.587  0.0000E+00  0.2000E+01
    -20.456  0.0000E+00  0.2000E+01
    -20.326  0.0000E+00  0.2000E+01
    -20.195  0.0000E+00  0.2000E+01
    -20.064  0.0000E+00  0.2000E+01
    -19.933  0.0000E+00  0.2000E+01
    -19.803  0.0000E+00  0.2000E+01
    -19.672  0.0000E+00  0.2000E+01
    -19.541  0.0000E+00  0.2000E+01
    -19.411  0.0000E+00  0.2000E+01
    -19.280  0.0000E+00  0.2000E+01
    -19.149  0.0000E+00  0.2000E+01
    -19.018  0.0000E+00  0.2000E+01
    -18.888  0.0000E+00  0.2000E+01
    -18.757  0.0000E+00  0.2000E+01
    -18.626  0.0000E+00  0.2000E+01
    -18.495  0.0000E+00  0.2000E+01
    -18.365  0.0000E+00  0.2000E+01
    -18.234  0.0000E+00  0.2000E+01
    -18.103  0.0000E+00  0.2000E+01
    -17.973  0.0000E+00  0.2000E+01
    -17.842  0.0000E+00  0.2000E+01
    -17.711  0.0000E+00  0.2000E+01
    -17.580  0.0000E+00  0.2000E+01
    -17.450  0.0000E+00  0.2000E+01
    -17.319  0.0000E+00  0.2000E+01
    -17.188  0.0000E+00  0.2000E+01
    -17.057  0.0000E+00  0.2000E+01
    -16.927  0.0000E+00  0.2000E+01
    -16.796  0.0000E+00  0.2000E+01
    -16.665  0.0000E+00  0.2000E+01
    -16.535  0.0000E+00  0.2000E+01
    -16.404  0.0000E+00  0.2000E+01
    -16.273  0.0000E+00  0.2000E+01
    -16.142  0.0000E+00  0.2000E+01
    -16.012  0.0000E+00  0.2000E+01
    -15.881  0.0000E+00  0.2000E+01
    -15.750  0.0000E+00  0.2000E+01
    -15.619  0.0000E+00  0.2000E+01
    -15.489  0.0000E+00  0.2000E+01
    -15.358  0.0000E+00  0.2000E+01
    -15.227  0.0000E+00  0.2000E+01
    -15.097  0.0000E+00  0.2000E+01
    -14.966  0.4785E-07  0.2000E+01
    -14.835  0.2651E+00  0.2035E+01
    -14.704  0.1417E+02  0.3887E+01
    -14.574  0.8638E+00  0.4000E+01
    -14.443  0.9739E-06  0.4000E+01
    -14.312  0.0000E+00  0.4000E+01
    -14.181  0.0000E+00  0.4000E+01
    -14.051  0.0000E+00  0.4000E+01
    -13.920  0.0000E+00  0.4000E+01
    -13.789  0.0000E+00  0.4000E+01
    -13.659  0.0000E+00  0.4000E+01
    -13.528  0.0000E+00  0.4000E+01
    -13.397  0.0000E+00  0.4000E+01
    -13.266  0.0000E+00  0.4000E+01
    -13.136  0.0000E+00  0.4000E+01
    -13.005  0.0000E+00  0.4000E+01
    -12.874  0.0000E+00  0.4000E+01
    -12.743  0.0000E+00  0.4000E+01
    -12.613  0.0000E+00  0.4000E+01
    -12.482  0.0000E+00  0.4000E+01
    -12.351  0.0000E+00  0.4000E+01
    -12.221  0.0000E+00  0.4000E+01
    -12.090  0.0000E+00  0.4000E+01
    -11.959  0.0000E+00  0.4000E+01
    -11.828  0.0000E+00  0.4000E+01
    -11.698  0.0000E+00  0.4000E+01
    -11.567  0.0000E+00  0.4000E+01
    -11.436  0.0000E+00  0.4000E+01
    -11.305  0.0000E+00  0.4000E+01
    -11.175  0.0000E+00  0.4000E+01
    -11.044  0.0000E+00  0.4000E+01
    -10.913  0.0000E+00  0.4000E+01
    -10.783  0.0000E+00  0.4000E+01
    -10.652  0.0000E+00  0.4000E+01
    -10.521  0.0000E+00  0.4000E+01
    -10.390  0.0000E+00  0.4000E+01
    -10.260  0.0000E+00  0.4000E+01
    -10.129  0.1354E-06  0.4000E+01
     -9.998  0.4045E+00  0.4053E+01
     -9.867  0.1430E+02  0.5922E+01
     -9.737  0.2258E+01  0.6217E+01
     -9.606  0.1353E+02  0.7986E+01
     -9.475  0.1063E+00  0.8000E+01
     -9.345  0.8049E-08  0.8000E+01
     -9.214  0.6974E-01  0.8009E+01
     -9.083  0.1423E+02  0.9870E+01
     -8.952  0.4826E+01  0.1050E+02
     -8.822  0.1458E+02  0.1241E+02
     -8.691  0.8361E+01  0.1350E+02
     -8.560  0.9139E+00  0.1362E+02
     -8.429  0.4759E+01  0.1424E+02
     -8.299  0.3486E+02  0.1880E+02
     -8.168  0.1822E+02  0.2118E+02
     -8.037  0.1391E+02  0.2300E+02
     -7.907  0.2945E+01  0.2338E+02
     -7.776  0.1999E+02  0.2600E+02
     -7.645  0.1695E+02  0.2821E+02
     -7.514  0.3758E+02  0.3313E+02
     -7.384  0.4107E+02  0.3849E+02
     -7.253  0.4402E-01  0.3850E+02
     -7.122  0.1035E+02  0.3985E+02
     -6.991  0.7531E+02  0.4970E+02
     -6.861  0.1836E+02  0.5210E+02
     -6.730  0.1134E+02  0.5358E+02
     -6.599  0.2502E+02  0.5685E+02
     -6.469  0.3373E+02  0.6126E+02
     -6.338  0.4823E+02  0.6757E+02
     -6.207  0.5643E+02  0.7494E+02
     -6.076  0.2763E+02  0.7855E+02
     -5.946  0.6322E+02  0.8682E+02
     -5.815  0.6942E+02  0.9589E+02
     -5.684  0.1485E+01  0.9609E+02
     -5.553  0.1461E+02  0.9800E+02
     -5.423  0.6259E+02  0.1062E+03
     -5.292  0.1310E+03  0.1233E+03
     -5.161  0.5149E+02  0.1300E+03
     -5.031  0.1067E+03  0.1440E+03
     -4.900  0.9542E+02  0.1565E+03
     -4.769  0.4380E+02  0.1622E+03
     -4.638  0.2518E+03  0.1951E+03
     -4.508  0.1598E+03  0.2160E+03
     -4.377  0.2369E+03  0.2469E+03
     -4.246  0.2960E+03  0.2856E+03
     -4.115  0.2502E+03  0.3184E+03
     -3.985  0.2086E+03  0.3456E+03
     -3.854  0.4242E+03  0.4011E+03
     -3.723  0.5129E+03  0.4681E+03
     -3.593  0.4142E+03  0.5223E+03
     -3.462  0.4656E+03  0.5831E+03
     -3.331  0.3607E+03  0.6303E+03
     -3.200  0.3445E+03  0.6753E+03
     -3.070  0.4990E+03  0.7406E+03
     -2.939  0.4109E+03  0.7943E+03
     -2.808  0.5128E+03  0.8613E+03
     -2.677  0.5309E+03  0.9307E+03
     -2.547  0.5387E+03  0.1001E+04
     -2.416  0.5921E+03  0.1079E+04
     -2.285  0.7120E+03  0.1172E+04
     -2.155  0.9030E+03  0.1290E+04
     -2.024  0.7936E+03  0.1393E+04
     -1.893  0.9351E+03  0.1516E+04
     -1.762  0.5942E+03  0.1593E+04
     -1.632  0.5960E+03  0.1671E+04
     -1.501  0.5326E+03  0.1741E+04
     -1.370  0.6736E+03  0.1829E+04
     -1.239  0.7929E+03  0.1933E+04
     -1.109  0.5095E+03  0.1999E+04
     -0.978  0.7587E+03  0.2098E+04
     -0.847  0.8565E+03  0.2210E+04
     -0.717  0.6548E+03  0.2296E+04
     -0.586  0.1012E+04  0.2428E+04
     -0.455  0.1213E+04  0.2587E+04
     -0.324  0.5219E+03  0.2655E+04
     -0.194  0.1503E+03  0.2675E+04
     -0.063  0.1411E+03  0.2693E+04
      0.068  0.1659E+03  0.2715E+04
      0.199  0.4839E+02  0.2721E+04
      0.329  0.5563E+02  0.2728E+04
      0.460  0.7200E+02  0.2738E+04
      0.591  0.9865E+02  0.2751E+04
      0.721  0.9837E+02  0.2764E+04
      0.852  0.7405E+02  0.2773E+04
      0.983  0.1375E+03  0.2791E+04
      1.114  0.8221E+02  0.2802E+04
      1.244  0.2473E+02  0.2805E+04
      1.375  0.1239E+03  0.2821E+04
      1.506  0.2878E+02  0.2825E+04
      1.637  0.8116E+02  0.2836E+04
      1.767  0.9697E+02  0.2848E+04
      1.898  0.7511E+02  0.2858E+04
      2.029  0.1007E+03  0.2871E+04
      2.159  0.3935E+02  0.2877E+04
      2.290  0.9655E+02  0.2889E+04
      2.421  0.1162E+03  0.2904E+04
      2.552  0.2816E+02  0.2908E+04
      2.682  0.5950E+02  0.2916E+04
      2.813  0.1500E+02  0.2918E+04
      2.944  0.4528E+02  0.2924E+04
      3.075  0.1458E+03  0.2943E+04
      3.205  0.1580E+03  0.2963E+04
      3.336  0.2707E+02  0.2967E+04
      3.467  0.3564E+02  0.2972E+04
      3.597  0.9019E+02  0.2983E+04
      3.728  0.4611E+02  0.2989E+04
      3.859  0.4605E+02  0.2996E+04
      3.990  0.1855E+02  0.2998E+04
      4.120  0.1062E+02  0.2999E+04
      4.251  0.6388E+02  0.3008E+04
      4.382  0.4290E+02  0.3013E+04
      4.513  0.8461E+02  0.3024E+04
      4.643  0.5719E+02  0.3032E+04
      4.774  0.4721E+02  0.3038E+04
      4.905  0.1224E+00  0.3038E+04
      5.035  0.7704E-08  0.3038E+04
      5.166  0.0000E+00  0.3038E+04
      5.297  0.0000E+00  0.3038E+04
      5.428  0.0000E+00  0.3038E+04
      5.558  0.0000E+00  0.3038E+04
      5.689  0.0000E+00  0.3038E+04
      5.820  0.0000E+00  0.3038E+04
      5.951  0.0000E+00  0.3038E+04
      6.081  0.0000E+00  0.3038E+04
      6.212  0.0000E+00  0.3038E+04
      6.343  0.0000E+00  0.3038E+04
      6.473  0.0000E+00  0.3038E+04
