  254  254    1    1
  0.2268316E+02  0.1514622E-08  0.1514622E-08  0.2900000E-08  0.5000000E-15
   1.0000000000000000E-004
  CAR 
 NiAl                                    
   2532      4   1519
 
  0.1262379E-14  0.1262379E-14  0.1262379E-14  0.2500000E+00
    1      -30.962070   1.000000
    2      -14.760606   1.000000
    3       -9.930213   1.000000
    4       -9.694496   1.000000
    5       -9.124685   1.000000
    6       -9.064193   1.000000
    7       -8.535050   1.000000
    8       -8.158755   1.000000
    9       -8.158668   1.000000
   10       -8.158659   1.000000
   11       -8.158628   1.000000
   12       -8.158568   1.000000
   13       -8.157245   1.000000
   14       -7.706108   1.000000
   15       -7.653009   1.000000
   16       -7.652689   1.000000
   17       -7.652640   1.000000
   18       -7.652629   1.000000
   19       -7.652597   1.000000
   20       -7.648544   1.000000
   21       -6.865196   1.000000
   22       -6.864615   1.000000
   23       -6.864539   1.000000
   24       -6.864532   1.000000
   25       -6.864518   1.000000
   26       -6.858336   1.000000
   27       -6.675510   1.000000
   28       -6.518403   1.000000
   29       -6.518278   1.000000
   30       -6.518221   1.000000
   31       -6.518176   1.000000
   32       -6.518129   1.000000
   33       -6.517946   1.000000
   34       -6.096147   1.000000
   35       -6.095776   1.000000
   36       -6.095665   1.000000
   37       -6.095621   1.000000
   38       -6.095557   1.000000
   39       -6.094832   1.000000
   40       -5.893662   1.000000
   41       -5.892984   1.000000
   42       -5.892864   1.000000
   43       -5.892836   1.000000
   44       -5.892788   1.000000
   45       -5.887719   1.000000
   46       -5.887664   1.000000
   47       -5.887637   1.000000
   48       -5.887565   1.000000
   49       -5.887530   1.000000
   50       -5.887491   1.000000
   51       -5.884565   1.000000
   52       -5.651233   1.000000
   53       -5.553060   1.000000
   54       -5.552754   1.000000
   55       -5.552656   1.000000
   56       -5.552604   1.000000
   57       -5.552551   1.000000
   58       -5.552319   1.000000
   59       -5.463609   1.000000
   60       -5.462928   1.000000
   61       -5.462751   1.000000
   62       -5.462698   1.000000
   63       -5.462554   1.000000
   64       -5.461208   1.000000
   65       -5.096000   1.000000
   66       -5.095477   1.000000
   67       -5.095446   1.000000
   68       -5.095371   1.000000
   69       -5.095262   1.000000
   70       -5.094928   1.000000
   71       -4.996872   1.000000
   72       -4.943186   1.000000
   73       -4.942427   1.000000
   74       -4.942119   1.000000
   75       -4.942092   1.000000
   76       -4.942070   1.000000
   77       -4.934726   1.000000
   78       -4.807201   1.000000
   79       -4.749749   1.000000
   80       -4.749723   1.000000
   81       -4.749660   1.000000
   82       -4.732718   1.000000
   83       -4.731897   1.000000
   84       -4.731725   1.000000
   85       -4.731671   1.000000
   86       -4.731508   1.000000
   87       -4.729688   1.000000
   88       -4.628259   1.000000
   89       -4.627822   1.000000
   90       -4.627715   1.000000
   91       -4.627586   1.000000
   92       -4.627538   1.000000
   93       -4.626979   1.000000
   94       -4.593732   1.000000
   95       -4.593689   1.000000
   96       -4.593532   1.000000
   97       -4.517728   1.000000
   98       -4.517643   1.000000
   99       -4.517589   1.000000
  100       -4.517521   1.000000
  101       -4.517493   1.000000
  102       -4.517477   1.000000
  103       -4.517459   1.000000
  104       -4.517438   1.000000
  105       -4.517427   1.000000
  106       -4.517397   1.000000
  107       -4.517392   1.000000
  108       -4.517360   1.000000
  109       -4.471885   1.000000
  110       -4.471771   1.000000
  111       -4.471693   1.000000
  112       -4.385551   1.000000
  113       -4.385380   1.000000
  114       -4.385291   1.000000
  115       -4.365126   1.000000
  116       -4.364283   1.000000
  117       -4.363874   1.000000
  118       -4.363794   1.000000
  119       -4.363773   1.000000
  120       -4.360210   1.000000
  121       -4.319505   1.000000
  122       -4.319437   1.000000
  123       -4.319220   1.000000
  124       -4.319121   1.000000
  125       -4.319052   1.000000
  126       -4.319035   1.000000
  127       -4.318999   1.000000
  128       -4.318977   1.000000
  129       -4.318963   1.000000
  130       -4.318943   1.000000
  131       -4.318922   1.000000
  132       -4.318903   1.000000
  133       -4.284934   1.000000
  134       -4.284841   1.000000
  135       -4.284765   1.000000
  136       -4.284647   1.000000
  137       -4.284600   1.000000
  138       -4.284585   1.000000
  139       -4.284561   1.000000
  140       -4.284484   1.000000
  141       -4.284467   1.000000
  142       -4.284428   1.000000
  143       -4.284307   1.000000
  144       -4.284293   1.000000
  145       -4.240415   1.000000
  146       -4.239989   1.000000
  147       -4.239798   1.000000
  148       -4.239788   1.000000
  149       -4.239731   1.000000
  150       -4.238670   1.000000
  151       -4.204659   1.000000
  152       -4.204060   1.000000
  153       -4.203922   1.000000
  154       -4.203700   1.000000
  155       -4.203679   1.000000
  156       -4.202830   1.000000
  157       -4.183805   1.000000
  158       -4.183665   1.000000
  159       -4.183548   1.000000
  160       -4.147430   1.000000
  161       -4.147316   1.000000
  162       -4.147135   1.000000
  163       -4.147018   1.000000
  164       -4.146866   1.000000
  165       -4.146807   1.000000
  166       -4.146739   1.000000
  167       -4.146524   1.000000
  168       -4.146485   1.000000
  169       -4.146469   1.000000
  170       -4.146426   1.000000
  171       -4.146388   1.000000
  172       -4.077897   1.000000
  173       -4.077073   1.000000
  174       -4.076878   1.000000
  175       -4.076823   1.000000
  176       -4.076656   1.000000
  177       -4.075269   1.000000
  178       -4.037280   1.000000
  179       -4.037232   1.000000
  180       -4.037056   1.000000
  181       -3.970936   1.000000
  182       -3.969968   1.000000
  183       -3.969841   1.000000
  184       -3.948230   1.000000
  185       -3.947644   1.000000
  186       -3.947570   1.000000
  187       -3.947202   1.000000
  188       -3.947188   1.000000
  189       -3.946995   1.000000
  190       -3.946854   1.000000
  191       -3.946656   1.000000
  192       -3.946618   1.000000
  193       -3.946509   1.000000
  194       -3.946468   1.000000
  195       -3.946435   1.000000
  196       -3.884104   1.000000
  197       -3.883900   1.000000
  198       -3.883635   1.000000
  199       -3.830673   1.000000
  200       -3.829822   1.000000
  201       -3.829777   1.000000
  202       -3.827455   1.000000
  203       -3.827143   1.000000
  204       -3.827047   1.000000
  205       -3.826914   1.000000
  206       -3.826794   1.000000
  207       -3.826041   1.000000
  208       -3.757501   1.000000
  209       -3.757443   1.000000
  210       -3.757322   1.000000
  211       -3.757279   1.000000
  212       -3.757260   1.000000
  213       -3.757204   1.000000
  214       -3.757193   1.000000
  215       -3.757166   1.000000
  216       -3.757134   1.000000
  217       -3.757071   1.000000
  218       -3.757018   1.000000
  219       -3.756959   1.000000
  220       -3.751526   1.000000
  221       -3.751432   1.000000
  222       -3.751366   1.000000
  223       -3.751144   1.000000
  224       -3.751056   1.000000
  225       -3.750935   1.000000
  226       -3.700476   1.000000
  227       -3.699483   1.000000
  228       -3.699209   1.000000
  229       -3.698721   1.000000
  230       -3.698591   1.000000
  231       -3.698398   1.000000
  232       -3.698362   1.000000
  233       -3.698130   1.000000
  234       -3.698120   1.000000
  235       -3.698071   1.000000
  236       -3.698049   1.000000
  237       -3.698017   1.000000
  238       -3.676054   1.000000
  239       -3.675625   1.000000
  240       -3.675326   1.000000
  241       -3.675287   1.000000
  242       -3.675200   1.000000
  243       -3.674791   1.000000
  244       -3.635944   1.000000
  245       -3.635813   1.000000
  246       -3.635766   1.000000
  247       -3.635664   1.000000
  248       -3.635629   1.000000
  249       -3.635427   1.000000
  250       -3.631986   1.000000
  251       -3.631927   1.000000
  252       -3.631784   1.000000
  253       -3.631768   1.000000
  254       -3.623614   1.000000
  255       -3.623559   1.000000
  256       -3.569957   1.000000
  257       -3.569792   1.000000
  258       -3.569645   1.000000
  259       -3.569183   1.000000
  260       -3.569164   1.000000
  261       -3.569085   1.000000
  262       -3.569049   1.000000
  263       -3.569007   1.000000
  264       -3.568929   1.000000
  265       -3.568911   1.000000
  266       -3.568867   1.000000
  267       -3.568783   1.000000
  268       -3.561228   1.000000
  269       -3.560959   1.000000
  270       -3.560841   1.000000
  271       -3.536441   1.000000
  272       -3.536029   1.000000
  273       -3.535860   1.000000
  274       -3.535848   1.000000
  275       -3.514960   1.000000
  276       -3.514349   1.000000
  277       -3.514279   1.000000
  278       -3.513836   1.000000
  279       -3.513731   1.000000
  280       -3.513548   1.000000
  281       -3.502234   1.000000
  282       -3.502120   1.000000
  283       -3.492107   1.000000
  284       -3.491946   1.000000
  285       -3.491922   1.000000
  286       -3.491861   1.000000
  287       -3.490103   1.000000
  288       -3.489976   1.000000
  289       -3.487626   1.000000
  290       -3.487160   1.000000
  291       -3.487042   1.000000
  292       -3.486843   1.000000
  293       -3.486731   1.000000
  294       -3.486595   1.000000
  295       -3.419723   1.000000
  296       -3.419072   1.000000
  297       -3.418195   1.000000
  298       -3.418173   1.000000
  299       -3.412805   1.000000
  300       -3.411707   1.000000
  301       -3.411331   1.000000
  302       -3.410946   1.000000
  303       -3.410915   1.000000
  304       -3.410819   1.000000
  305       -3.410681   1.000000
  306       -3.410662   1.000000
  307       -3.410598   1.000000
  308       -3.410547   1.000000
  309       -3.410519   1.000000
  310       -3.410497   1.000000
  311       -3.339196   1.000000
  312       -3.339159   1.000000
  313       -3.339062   1.000000
  314       -3.339021   1.000000
  315       -3.338943   1.000000
  316       -3.338889   1.000000
  317       -3.306042   1.000000
  318       -3.304997   1.000000
  319       -3.304828   1.000000
  320       -3.303262   1.000000
  321       -3.303101   1.000000
  322       -3.303079   1.000000
  323       -3.302968   1.000000
  324       -3.302910   1.000000
  325       -3.302880   1.000000
  326       -3.302842   1.000000
  327       -3.302731   1.000000
  328       -3.302711   1.000000
  329       -3.293062   1.000000
  330       -3.292608   1.000000
  331       -3.292468   1.000000
  332       -3.292351   1.000000
  333       -3.292306   1.000000
  334       -3.292205   1.000000
  335       -3.286642   1.000000
  336       -3.286088   1.000000
  337       -3.286031   1.000000
  338       -3.285536   1.000000
  339       -3.285443   1.000000
  340       -3.284669   1.000000
  341       -3.198765   1.000000
  342       -3.198063   1.000000
  343       -3.197595   1.000000
  344       -3.158359   1.000000
  345       -3.158241   1.000000
  346       -3.157796   1.000000
  347       -3.157481   1.000000
  348       -3.157350   1.000000
  349       -3.157142   1.000000
  350       -3.146579   1.000000
  351       -3.146291   1.000000
  352       -3.127020   1.000000
  353       -3.125000   1.000000
  354       -3.124747   1.000000
  355       -3.123636   1.000000
  356       -3.123610   1.000000
  357       -3.123269   1.000000
  358       -3.123088   1.000000
  359       -3.123008   1.000000
  360       -3.122899   1.000000
  361       -3.122878   1.000000
  362       -3.122806   1.000000
  363       -3.122719   1.000000
  364       -3.114270   1.000000
  365       -3.113959   1.000000
  366       -3.053752   1.000000
  367       -3.052934   1.000000
  368       -3.052530   1.000000
  369       -3.052373   1.000000
  370       -3.052125   1.000000
  371       -3.051358   1.000000
  372       -3.027584   1.000000
  373       -3.027162   1.000000
  374       -3.026538   1.000000
  375       -3.026513   1.000000
  376       -3.026298   1.000000
  377       -3.026208   1.000000
  378       -3.026133   1.000000
  379       -3.026015   1.000000
  380       -3.025940   1.000000
  381       -3.025860   1.000000
  382       -3.025790   1.000000
  383       -3.025629   1.000000
  384       -2.977838   1.000000
  385       -2.976516   1.000000
  386       -2.974893   1.000000
  387       -2.974827   1.000000
  388       -2.974604   1.000000
  389       -2.974486   1.000000
  390       -2.974460   1.000000
  391       -2.974433   1.000000
  392       -2.974371   1.000000
  393       -2.974341   1.000000
  394       -2.974325   1.000000
  395       -2.974178   1.000000
  396       -2.919674   1.000000
  397       -2.919309   1.000000
  398       -2.919181   1.000000
  399       -2.919085   1.000000
  400       -2.918984   1.000000
  401       -2.918906   1.000000
  402       -2.863074   1.000000
  403       -2.861105   1.000000
  404       -2.860746   1.000000
  405       -2.860607   1.000000
  406       -2.860463   1.000000
  407       -2.858697   1.000000
  408       -2.850506   1.000000
  409       -2.850246   1.000000
  410       -2.850054   1.000000
  411       -2.850012   1.000000
  412       -2.849976   1.000000
  413       -2.849596   1.000000
  414       -2.823872   1.000000
  415       -2.823744   1.000000
  416       -2.823678   1.000000
  417       -2.823520   1.000000
  418       -2.823507   1.000000
  419       -2.823396   1.000000
  420       -2.819937   1.000000
  421       -2.818284   1.000000
  422       -2.817704   1.000000
  423       -2.817656   1.000000
  424       -2.817372   1.000000
  425       -2.816465   1.000000
  426       -2.796691   1.000000
  427       -2.795288   1.000000
  428       -2.794314   1.000000
  429       -2.794090   1.000000
  430       -2.794077   1.000000
  431       -2.793525   1.000000
  432       -2.791365   1.000000
  433       -2.791054   1.000000
  434       -2.790117   1.000000
  435       -2.789951   1.000000
  436       -2.789851   1.000000
  437       -2.789799   1.000000
  438       -2.789754   1.000000
  439       -2.789727   1.000000
  440       -2.789706   1.000000
  441       -2.789668   1.000000
  442       -2.789618   1.000000
  443       -2.789572   1.000000
  444       -2.728599   1.000000
  445       -2.727546   1.000000
  446       -2.726654   1.000000
  447       -2.717446   1.000000
  448       -2.717297   1.000000
  449       -2.717121   1.000000
  450       -2.716841   1.000000
  451       -2.716792   1.000000
  452       -2.716749   1.000000
  453       -2.716662   1.000000
  454       -2.716609   1.000000
  455       -2.716550   1.000000
  456       -2.716428   1.000000
  457       -2.716373   1.000000
  458       -2.716346   1.000000
  459       -2.714310   1.000000
  460       -2.713363   1.000000
  461       -2.713191   1.000000
  462       -2.713143   1.000000
  463       -2.712902   1.000000
  464       -2.712444   1.000000
  465       -2.675768   1.000000
  466       -2.675754   1.000000
  467       -2.675632   1.000000
  468       -2.675556   1.000000
  469       -2.627130   1.000000
  470       -2.626089   1.000000
  471       -2.626079   1.000000
  472       -2.626061   1.000000
  473       -2.625865   1.000000
  474       -2.625108   1.000000
  475       -2.622238   1.000000
  476       -2.622074   1.000000
  477       -2.621139   1.000000
  478       -2.621004   1.000000
  479       -2.620466   1.000000
  480       -2.620204   1.000000
  481       -2.620132   1.000000
  482       -2.620052   1.000000
  483       -2.619991   1.000000
  484       -2.619887   1.000000
  485       -2.619729   1.000000
  486       -2.619659   1.000000
  487       -2.619593   1.000000
  488       -2.619325   1.000000
  489       -2.615257   1.000000
  490       -2.615123   1.000000
  491       -2.614636   1.000000
  492       -2.614051   1.000000
  493       -2.613976   1.000000
  494       -2.613931   1.000000
  495       -2.613916   1.000000
  496       -2.613899   1.000000
  497       -2.613788   1.000000
  498       -2.613733   1.000000
  499       -2.613692   1.000000
  500       -2.613597   1.000000
  501       -2.562934   1.000000
  502       -2.562009   1.000000
  503       -2.561998   1.000000
  504       -2.561928   1.000000
  505       -2.561816   1.000000
  506       -2.559726   1.000000
  507       -2.554483   1.000000
  508       -2.554137   1.000000
  509       -2.553826   1.000000
  510       -2.553707   1.000000
  511       -2.553641   1.000000
  512       -2.553470   1.000000
  513       -2.528683   1.000000
  514       -2.528675   1.000000
  515       -2.527844   1.000000
  516       -2.527788   1.000000
  517       -2.517552   1.000000
  518       -2.506905   1.000000
  519       -2.502270   1.000000
  520       -2.500567   1.000000
  521       -2.500378   1.000000
  522       -2.499734   1.000000
  523       -2.499360   1.000000
  524       -2.478610   1.000000
  525       -2.460375   1.000000
  526       -2.456882   1.000000
  527       -2.455407   1.000000
  528       -2.455196   1.000000
  529       -2.455178   1.000000
  530       -2.454975   1.000000
  531       -2.454960   1.000000
  532       -2.454860   1.000000
  533       -2.454787   1.000000
  534       -2.454747   1.000000
  535       -2.454655   1.000000
  536       -2.454588   1.000000
  537       -2.445091   1.000000
  538       -2.440758   1.000000
  539       -2.439855   1.000000
  540       -2.439263   1.000000
  541       -2.438604   1.000000
  542       -2.435946   1.000000
  543       -2.412599   1.000000
  544       -2.412224   1.000000
  545       -2.411736   1.000000
  546       -2.398035   1.000000
  547       -2.397095   1.000000
  548       -2.397016   1.000000
  549       -2.396984   1.000000
  550       -2.396713   1.000000
  551       -2.394032   1.000000
  552       -2.384263   1.000000
  553       -2.383778   1.000000
  554       -2.383559   1.000000
  555       -2.383456   1.000000
  556       -2.383324   1.000000
  557       -2.383152   1.000000
  558       -2.383063   1.000000
  559       -2.383027   1.000000
  560       -2.382938   1.000000
  561       -2.382857   1.000000
  562       -2.382803   1.000000
  563       -2.382733   1.000000
  564       -2.377825   1.000000
  565       -2.375541   1.000000
  566       -2.375001   1.000000
  567       -2.374728   1.000000
  568       -2.374611   1.000000
  569       -2.373091   1.000000
  570       -2.373006   1.000000
  571       -2.372941   1.000000
  572       -2.370669   1.000000
  573       -2.324711   1.000000
  574       -2.323778   1.000000
  575       -2.323264   1.000000
  576       -2.323080   1.000000
  577       -2.322863   1.000000
  578       -2.321621   1.000000
  579       -2.320928   1.000000
  580       -2.320718   1.000000
  581       -2.319302   1.000000
  582       -2.319091   1.000000
  583       -2.308904   1.000000
  584       -2.308809   1.000000
  585       -2.307769   1.000000
  586       -2.307696   1.000000
  587       -2.307593   1.000000
  588       -2.307264   1.000000
  589       -2.289495   1.000000
  590       -2.280583   1.000000
  591       -2.279698   1.000000
  592       -2.279541   1.000000
  593       -2.279363   1.000000
  594       -2.279242   1.000000
  595       -2.278698   1.000000
  596       -2.265962   1.000000
  597       -2.265940   1.000000
  598       -2.265888   1.000000
  599       -2.265823   1.000000
  600       -2.265802   1.000000
  601       -2.265708   1.000000
  602       -2.261155   1.000000
  603       -2.260943   1.000000
  604       -2.260678   1.000000
  605       -2.247039   1.000000
  606       -2.246925   1.000000
  607       -2.246839   1.000000
  608       -2.246788   1.000000
  609       -2.246736   1.000000
  610       -2.246713   1.000000
  611       -2.231253   1.000000
  612       -2.231012   1.000000
  613       -2.207521   1.000000
  614       -2.207340   1.000000
  615       -2.207065   1.000000
  616       -2.205755   1.000000
  617       -2.204689   1.000000
  618       -2.204190   1.000000
  619       -2.202554   1.000000
  620       -2.202319   1.000000
  621       -2.202229   1.000000
  622       -2.201753   1.000000
  623       -2.186493   1.000000
  624       -2.186264   1.000000
  625       -2.171975   1.000000
  626       -2.171972   1.000000
  627       -2.171885   1.000000
  628       -2.171847   1.000000
  629       -2.171786   1.000000
  630       -2.171688   1.000000
  631       -2.168537   1.000000
  632       -2.166996   1.000000
  633       -2.165918   1.000000
  634       -2.148966   1.000000
  635       -2.148622   1.000000
  636       -2.148511   1.000000
  637       -2.148355   1.000000
  638       -2.148299   1.000000
  639       -2.148226   1.000000
  640       -2.140264   1.000000
  641       -2.138138   1.000000
  642       -2.137273   1.000000
  643       -2.137125   1.000000
  644       -2.129722   1.000000
  645       -2.124730   1.000000
  646       -2.124543   1.000000
  647       -2.124344   1.000000
  648       -2.124338   1.000000
  649       -2.123898   1.000000
  650       -2.123083   1.000000
  651       -2.121186   1.000000
  652       -2.121012   1.000000
  653       -2.120733   1.000000
  654       -2.120574   1.000000
  655       -2.120513   1.000000
  656       -2.120368   1.000000
  657       -2.120227   1.000000
  658       -2.120222   1.000000
  659       -2.120200   1.000000
  660       -2.120086   1.000000
  661       -2.113423   1.000000
  662       -2.112462   1.000000
  663       -2.111645   1.000000
  664       -2.110857   1.000000
  665       -2.110796   1.000000
  666       -2.110743   1.000000
  667       -2.106800   1.000000
  668       -2.106696   1.000000
  669       -2.106326   1.000000
  670       -2.105696   1.000000
  671       -2.105398   1.000000
  672       -2.105075   1.000000
  673       -2.060820   1.000000
  674       -2.060555   1.000000
  675       -2.059427   1.000000
  676       -2.059078   1.000000
  677       -2.059009   1.000000
  678       -2.058784   1.000000
  679       -2.053458   1.000000
  680       -2.038054   1.000000
  681       -2.037239   1.000000
  682       -2.037008   1.000000
  683       -2.036928   1.000000
  684       -2.036893   1.000000
  685       -2.036677   1.000000
  686       -2.036346   1.000000
  687       -2.023648   1.000000
  688       -2.012522   1.000000
  689       -2.012486   1.000000
  690       -2.010249   1.000000
  691       -2.010212   1.000000
  692       -2.008859   1.000000
  693       -2.008709   1.000000
  694       -2.008167   1.000000
  695       -2.007610   1.000000
  696       -2.007580   1.000000
  697       -2.007415   1.000000
  698       -2.007393   1.000000
  699       -2.007295   1.000000
  700       -2.007201   1.000000
  701       -2.006988   1.000000
  702       -2.002354   1.000000
  703       -2.002170   1.000000
  704       -1.993600   1.000000
  705       -1.993498   1.000000
  706       -1.993390   1.000000
  707       -1.992956   1.000000
  708       -1.992843   1.000000
  709       -1.992805   1.000000
  710       -1.992775   1.000000
  711       -1.992684   1.000000
  712       -1.992652   1.000000
  713       -1.992620   1.000000
  714       -1.992592   1.000000
  715       -1.992585   1.000000
  716       -1.990046   1.000000
  717       -1.989860   1.000000
  718       -1.966924   1.000000
  719       -1.966830   1.000000
  720       -1.966798   1.000000
  721       -1.966704   1.000000
  722       -1.966649   1.000000
  723       -1.966584   1.000000
  724       -1.953138   1.000000
  725       -1.947528   1.000000
  726       -1.944632   1.000000
  727       -1.943678   1.000000
  728       -1.943430   1.000000
  729       -1.941490   1.000000
  730       -1.930614   1.000000
  731       -1.926270   1.000000
  732       -1.922220   1.000000
  733       -1.921909   1.000000
  734       -1.921416   1.000000
  735       -1.921410   1.000000
  736       -1.921294   1.000000
  737       -1.921118   1.000000
  738       -1.921101   1.000000
  739       -1.921078   1.000000
  740       -1.920977   1.000000
  741       -1.920572   1.000000
  742       -1.877473   1.000000
  743       -1.877354   1.000000
  744       -1.877186   1.000000
  745       -1.877070   1.000000
  746       -1.877028   1.000000
  747       -1.876939   1.000000
  748       -1.871516   1.000000
  749       -1.871160   1.000000
  750       -1.871084   1.000000
  751       -1.870510   1.000000
  752       -1.870360   1.000000
  753       -1.868644   1.000000
  754       -1.838357   1.000000
  755       -1.828737   1.000000
  756       -1.823364   1.000000
  757       -1.823158   1.000000
  758       -1.822858   1.000000
  759       -1.822611   1.000000
  760       -1.822252   1.000000
  761       -1.822237   1.000000
  762       -1.822196   1.000000
  763       -1.822113   1.000000
  764       -1.822065   1.000000
  765       -1.821899   1.000000
  766       -1.819306   1.000000
  767       -1.819189   1.000000
  768       -1.818608   1.000000
  769       -1.818501   1.000000
  770       -1.818460   1.000000
  771       -1.817663   1.000000
  772       -1.812704   1.000000
  773       -1.812415   1.000000
  774       -1.811911   1.000000
  775       -1.811814   1.000000
  776       -1.811761   1.000000
  777       -1.811312   1.000000
  778       -1.780605   1.000000
  779       -1.779980   1.000000
  780       -1.779919   1.000000
  781       -1.776224   1.000000
  782       -1.775731   1.000000
  783       -1.775664   1.000000
  784       -1.775563   1.000000
  785       -1.775499   1.000000
  786       -1.775398   1.000000
  787       -1.773606   1.000000
  788       -1.764345   1.000000
  789       -1.758338   1.000000
  790       -1.757451   1.000000
  791       -1.757269   1.000000
  792       -1.753778   1.000000
  793       -1.751841   1.000000
  794       -1.751561   1.000000
  795       -1.751135   1.000000
  796       -1.750792   1.000000
  797       -1.750688   1.000000
  798       -1.750561   1.000000
  799       -1.733362   1.000000
  800       -1.731757   1.000000
  801       -1.730638   1.000000
  802       -1.730504   1.000000
  803       -1.730438   1.000000
  804       -1.730383   1.000000
  805       -1.730080   1.000000
  806       -1.727526   1.000000
  807       -1.723854   1.000000
  808       -1.723234   1.000000
  809       -1.722666   1.000000
  810       -1.722498   1.000000
  811       -1.722280   1.000000
  812       -1.722218   1.000000
  813       -1.722151   1.000000
  814       -1.722027   1.000000
  815       -1.721918   1.000000
  816       -1.721632   1.000000
  817       -1.692989   1.000000
  818       -1.688362   1.000000
  819       -1.684926   1.000000
  820       -1.684742   1.000000
  821       -1.683786   1.000000
  822       -1.683562   1.000000
  823       -1.683382   1.000000
  824       -1.683128   1.000000
  825       -1.683013   1.000000
  826       -1.682917   1.000000
  827       -1.682891   1.000000
  828       -1.682755   1.000000
  829       -1.650851   1.000000
  830       -1.650752   1.000000
  831       -1.650364   1.000000
  832       -1.649430   1.000000
  833       -1.649092   1.000000
  834       -1.649020   1.000000
  835       -1.648922   1.000000
  836       -1.648818   1.000000
  837       -1.648713   1.000000
  838       -1.644840   1.000000
  839       -1.644662   1.000000
  840       -1.644350   1.000000
  841       -1.644238   1.000000
  842       -1.644024   1.000000
  843       -1.643849   1.000000
  844       -1.636414   1.000000
  845       -1.633268   1.000000
  846       -1.632847   1.000000
  847       -1.632796   1.000000
  848       -1.632590   1.000000
  849       -1.632522   1.000000
  850       -1.629813   1.000000
  851       -1.626555   1.000000
  852       -1.625224   1.000000
  853       -1.624763   1.000000
  854       -1.624254   1.000000
  855       -1.623681   1.000000
  856       -1.622703   1.000000
  857       -1.622675   1.000000
  858       -1.621307   1.000000
  859       -1.620349   1.000000
  860       -1.620207   1.000000
  861       -1.610320   1.000000
  862       -1.601274   1.000000
  863       -1.600943   1.000000
  864       -1.600361   1.000000
  865       -1.568508   1.000000
  866       -1.565806   1.000000
  867       -1.565444   1.000000
  868       -1.565395   1.000000
  869       -1.564919   1.000000
  870       -1.564000   1.000000
  871       -1.538214   1.000000
  872       -1.537581   1.000000
  873       -1.535555   1.000000
  874       -1.535186   1.000000
  875       -1.534761   1.000000
  876       -1.534471   1.000000
  877       -1.534297   1.000000
  878       -1.534266   1.000000
  879       -1.534056   1.000000
  880       -1.534038   1.000000
  881       -1.533627   1.000000
  882       -1.533484   1.000000
  883       -1.524991   1.000000
  884       -1.519706   1.000000
  885       -1.515713   1.000000
  886       -1.515000   1.000000
  887       -1.514495   1.000000
  888       -1.513999   1.000000
  889       -1.487043   1.000000
  890       -1.462673   1.000000
  891       -1.462486   1.000000
  892       -1.461726   1.000000
  893       -1.461479   1.000000
  894       -1.461415   1.000000
  895       -1.461376   1.000000
  896       -1.412752   1.000000
  897       -1.409507   1.000000
  898       -1.408985   1.000000
  899       -1.408090   1.000000
  900       -1.407238   1.000000
  901       -1.406913   1.000000