       N       E                     dE             d eps       ncg     rms          rms(c)
DAV:   1     0.223559620813E+05    0.22356E+05   -0.98556E+05 12200   0.134E+03
DAV:   2     0.102066897858E+03   -0.22254E+05   -0.21263E+05 12152   0.469E+02
DAV:   3    -0.133701297731E+04   -0.14391E+04   -0.12104E+04 13760   0.131E+02
DAV:   4    -0.155502864992E+04   -0.21802E+03   -0.18583E+03 20944   0.488E+01
DAV:   5    -0.156730855919E+04   -0.12280E+02   -0.97564E+01 19128   0.115E+01    0.150E+02
DAV:   6    -0.194509857197E+04   -0.37779E+03   -0.27778E+03 15744   0.168E+02    0.290E+02
DAV:   7    -0.176835218814E+04    0.17675E+03   -0.10725E+03 13360   0.146E+02    0.240E+02
DAV:   8    -0.228180972223E+04   -0.51346E+03   -0.62754E+02 16392   0.140E+02    0.339E+02
DAV:   9    -0.179996497154E+04    0.48184E+03   -0.31578E+02 14528   0.953E+01    0.263E+02
DAV:  10    -0.171445520708E+04    0.85510E+02   -0.24537E+02 15688   0.781E+01    0.226E+02
DAV:  11    -0.152606835234E+04    0.18839E+03   -0.27388E+02 13952   0.706E+01    0.176E+02
DAV:  12    -0.160303841123E+04   -0.76970E+02   -0.50320E+02 16616   0.107E+02    0.223E+02
DAV:  13    -0.153645476035E+04    0.66584E+02   -0.27265E+02 14776   0.636E+01    0.170E+02
DAV:  14    -0.151723903581E+04    0.19216E+02   -0.16798E+02 13208   0.824E+01    0.183E+02
DAV:  15    -0.147538456757E+04    0.41854E+02   -0.81632E+01 13072   0.580E+01    0.173E+02
DAV:  16    -0.145052751045E+04    0.24857E+02   -0.11800E+02 17440   0.585E+01    0.163E+02
DAV:  17    -0.140938040118E+04    0.41147E+02   -0.49623E+01 12872   0.404E+01    0.143E+02
DAV:  18    -0.139515406665E+04    0.14226E+02   -0.48953E+01 14008   0.363E+01    0.136E+02
DAV:  19    -0.135702749766E+04    0.38127E+02   -0.30068E+01 12800   0.314E+01    0.931E+01
DAV:  20    -0.134398142740E+04    0.13046E+02   -0.14824E+01 12960   0.216E+01    0.746E+01
DAV:  21    -0.134219986438E+04    0.17816E+01   -0.88374E+00 13040   0.157E+01    0.717E+01
DAV:  22    -0.133973423445E+04    0.24656E+01   -0.66860E+00 13072   0.139E+01    0.653E+01
DAV:  23    -0.133546150090E+04    0.42727E+01   -0.56533E+00 13040   0.133E+01    0.530E+01
DAV:  24    -0.133323633748E+04    0.22252E+01   -0.37843E+00 13168   0.108E+01    0.492E+01
DAV:  25    -0.133281469441E+04    0.42164E+00   -0.33427E+00 13248   0.111E+01    0.498E+01
DAV:  26    -0.133183752708E+04    0.97717E+00   -0.39265E+00 14224   0.120E+01    0.508E+01
DAV:  27    -0.133111329314E+04    0.72423E+00   -0.35892E+00 13680   0.113E+01    0.480E+01
DAV:  28    -0.133018037638E+04    0.93292E+00   -0.33101E+00 13312   0.111E+01    0.446E+01
DAV:  29    -0.132901134495E+04    0.11690E+01   -0.26791E+00 13312   0.100E+01    0.424E+01
DAV:  30    -0.132903791698E+04   -0.26572E-01   -0.17531E+00 13328   0.765E+00    0.464E+01
DAV:  31    -0.132829013667E+04    0.74778E+00   -0.13563E+00 13328   0.658E+00    0.428E+01
DAV:  32    -0.132706843461E+04    0.12217E+01   -0.90916E-01 13312   0.461E+00    0.362E+01
DAV:  33    -0.132622489084E+04    0.84354E+00   -0.57735E-01 13352   0.384E+00    0.314E+01
DAV:  34    -0.132645946870E+04   -0.23458E+00   -0.10438E+00 13440   0.550E+00    0.302E+01
DAV:  35    -0.132717474251E+04   -0.71527E+00   -0.13698E+00 13472   0.697E+00    0.340E+01
DAV:  36    -0.132931784713E+04   -0.21431E+01   -0.16420E+00 13456   0.765E+00    0.482E+01
DAV:  37    -0.132879448140E+04    0.52337E+00   -0.16232E+00 13456   0.742E+00    0.462E+01
DAV:  38    -0.132684487252E+04    0.19496E+01   -0.13121E+00 13544   0.652E+00    0.334E+01
DAV:  39    -0.132640060168E+04    0.44427E+00   -0.89765E-01 13504   0.537E+00    0.320E+01
DAV:  40    -0.132567999788E+04    0.72060E+00   -0.83978E-01 13416   0.546E+00    0.281E+01
DAV:  41    -0.132530969191E+04    0.37031E+00   -0.81792E-01 13528   0.494E+00    0.253E+01
DAV:  42    -0.132470075671E+04    0.60894E+00   -0.62312E-01 13424   0.421E+00    0.198E+01
DAV:  43    -0.132456869049E+04    0.13207E+00   -0.37088E-01 13392   0.315E+00    0.191E+01
DAV:  44    -0.132463043554E+04   -0.61745E-01   -0.40766E-01 13392   0.321E+00    0.180E+01
DAV:  45    -0.132425177344E+04    0.37866E+00   -0.31917E-01 13408   0.280E+00    0.115E+01
DAV:  46    -0.132406283492E+04    0.18894E+00   -0.17058E-01 13408   0.186E+00    0.785E+00
DAV:  47    -0.132404022407E+04    0.22611E-01   -0.93822E-02 13416   0.122E+00    0.703E+00
DAV:  48    -0.132411357098E+04   -0.73347E-01   -0.89937E-02 13408   0.155E+00    0.860E+00
DAV:  49    -0.132408125418E+04    0.32317E-01   -0.12720E-01 13408   0.164E+00    0.841E+00
DAV:  50    -0.132403569416E+04    0.45560E-01   -0.57425E-02 13376   0.121E+00    0.713E+00
DAV:  51    -0.132420536127E+04   -0.16967E+00   -0.19861E-01 17512   0.211E+00    0.106E+01
DAV:  52    -0.132406532093E+04    0.14004E+00   -0.17738E-01 14080   0.219E+00    0.770E+00
DAV:  53    -0.132401061540E+04    0.54706E-01   -0.88624E-02 13920   0.170E+00    0.492E+00
DAV:  54    -0.132400215453E+04    0.84609E-02   -0.49774E-02 13776   0.124E+00    0.453E+00
DAV:  55    -0.132402080916E+04   -0.18655E-01   -0.54524E-02 13712   0.117E+00    0.542E+00
DAV:  56    -0.132402376282E+04   -0.29537E-02   -0.60053E-02 13760   0.133E+00    0.587E+00
DAV:  57    -0.132397911683E+04    0.44646E-01   -0.35890E-02 13680   0.990E-01    0.458E+00
DAV:  58    -0.132396336625E+04    0.15751E-01   -0.23656E-02 13728   0.827E-01    0.374E+00
DAV:  59    -0.132396173260E+04    0.16337E-02   -0.23295E-02 13760   0.885E-01    0.350E+00
DAV:  60    -0.132398630283E+04   -0.24570E-01   -0.20346E-02 13704   0.863E-01    0.388E+00
DAV:  61    -0.132407179430E+04   -0.85491E-01   -0.65718E-02 13808   0.161E+00    0.706E+00
DAV:  62    -0.132399263728E+04    0.79157E-01   -0.62748E-02 13658   0.139E+00    0.371E+00
DAV:  63    -0.132398521463E+04    0.74227E-02   -0.19902E-02 13746   0.872E-01    0.308E+00
DAV:  64    -0.132398508631E+04    0.12831E-03   -0.18724E-02 13682   0.825E-01    0.273E+00
DAV:  65    -0.132397062633E+04    0.14460E-01   -0.10668E-02 13680   0.652E-01    0.166E+00
DAV:  66    -0.132399730572E+04   -0.26679E-01   -0.17963E-02 15384   0.782E-01    0.372E+00
DAV:  67    -0.132397274712E+04    0.24559E-01   -0.17002E-02 14672   0.767E-01    0.184E+00
DAV:  68    -0.132396693115E+04    0.58160E-02   -0.52294E-03 13840   0.372E-01    0.142E+00
DAV:  69    -0.132396954622E+04   -0.26151E-02   -0.35920E-03 13600   0.341E-01    0.967E-01
DAV:  70    -0.132396851958E+04    0.10266E-02   -0.19788E-03 13696   0.257E-01    0.647E-01
DAV:  71    -0.132398167933E+04   -0.13160E-01   -0.69839E-03 15296   0.501E-01    0.246E+00
DAV:  72    -0.132397058456E+04    0.11095E-01   -0.71132E-03 14216   0.478E-01    0.101E+00
DAV:  73    -0.132396889641E+04    0.16881E-02   -0.14840E-03 13792   0.214E-01    0.426E-01
DAV:  74    -0.132396940390E+04   -0.50749E-03   -0.82427E-04 14552   0.141E-01    0.461E-01
DAV:  75    -0.132396985311E+04   -0.44921E-03   -0.57694E-04 13368   0.128E-01    0.380E-01
DAV:  76    -0.132397061491E+04   -0.76180E-03   -0.66718E-04 13752   0.150E-01    0.610E-01
DAV:  77    -0.132397026503E+04    0.34988E-03   -0.56110E-04 13632   0.135E-01    0.384E-01
DAV:  78    -0.132397048036E+04   -0.21533E-03   -0.25762E-04 13832   0.826E-02    0.324E-01
DAV:  79    -0.132397063351E+04   -0.15315E-03   -0.14888E-04 13736   0.654E-02    0.236E-01
DAV:  80    -0.132397087747E+04   -0.24397E-03   -0.88960E-05 13376   0.517E-02    0.254E-01
DAV:  81    -0.132397124360E+04   -0.36613E-03   -0.13527E-04 13848   0.697E-02    0.332E-01
DAV:  82    -0.132397136637E+04   -0.12277E-03   -0.15007E-04 13584   0.646E-02    0.214E-01
DAV:  83    -0.132397170141E+04   -0.33503E-03   -0.78318E-05 13632   0.479E-02    0.175E-01
DAV:  84    -0.132397216013E+04   -0.45872E-03   -0.62886E-05 13560   0.408E-02    0.160E-01
DAV:  85    -0.132397237356E+04   -0.21344E-03   -0.42903E-05 12480   0.328E-02    0.149E-01
DAV:  86    -0.132397243403E+04   -0.60462E-04   -0.35729E-05 11448   0.327E-02    0.149E-01
DAV:  87    -0.132397265729E+04   -0.22327E-03   -0.40379E-05 11216   0.329E-02    0.141E-01
DAV:  88    -0.132397306527E+04   -0.40797E-03   -0.44932E-05 12120   0.307E-02    0.109E-01
DAV:  89    -0.132397332153E+04   -0.25627E-03   -0.36614E-05 12088   0.310E-02    0.114E-01
DAV:  90    -0.132397352587E+04   -0.20434E-03   -0.32983E-05 11305   0.283E-02    0.102E-01
DAV:  91    -0.132397326433E+04    0.26154E-03   -0.28484E-05 10097   0.290E-02    0.124E-01
DAV:  92    -0.132397350367E+04   -0.23934E-03   -0.26544E-05  8624   0.259E-02    0.102E-01
DAV:  93    -0.132397383780E+04   -0.33414E-03   -0.35408E-05 11868   0.237E-02    0.849E-02
DAV:  94    -0.132397402308E+04   -0.18528E-03   -0.22515E-05 11136   0.201E-02    0.705E-02
DAV:  95    -0.132397410715E+04   -0.84067E-04   -0.13013E-05  8897   0.183E-02    0.786E-02
DAV:  96    -0.132397401882E+04    0.88332E-04   -0.18523E-05  7912   0.243E-02    0.952E-02
DAV:  97    -0.132397416183E+04   -0.14301E-03   -0.18634E-05  8522   0.215E-02    0.717E-02
DAV:  98    -0.132397421851E+04   -0.56688E-04   -0.97747E-06  8536   0.145E-02    0.542E-02
DAV:  99    -0.132397426236E+04   -0.43842E-04   -0.95775E-06  8768   0.123E-02    0.564E-02
DAV: 100    -0.132397428480E+04   -0.22440E-04   -0.64624E-06  7720   0.115E-02    0.386E-02
DAV: 101    -0.132397418823E+04    0.96570E-04   -0.20581E-05  8588   0.215E-02    0.111E-01
DAV: 102    -0.132397431500E+04   -0.12677E-03   -0.31898E-05  9397   0.206E-02    0.414E-02
DAV: 103    -0.132397431719E+04   -0.21858E-05   -0.58925E-06  8168   0.107E-02
   1 F= -.14213188E+04 E0= -.14205658E+04  d E =-.150589E+01
