  253  253   40    1
  0.2277282E+02  0.1514622E-08  0.1514622E-08  0.2900000E-08  0.2000000E-15
   1.0000000000000000E-004
  CAR 
 NiAl                                    
   2526      2   1515
 
  0.1262379E-14  0.1262379E-14  0.1262379E-14  0.2500000E+00
    1      -20.029417   1.000000
    2       -9.241460   1.000000
    3       -8.667486   1.000000
    4       -8.336587   1.000000
    5       -8.336577   1.000000
    6       -8.336174   1.000000
    7       -8.335257   1.000000
    8       -8.335250   1.000000
    9       -8.326903   1.000000
   10       -7.799491   1.000000
   11       -7.794146   1.000000
   12       -7.794141   1.000000
   13       -7.790216   1.000000
   14       -7.790212   1.000000
   15       -7.789704   1.000000
   16       -7.769710   1.000000
   17       -6.994792   1.000000
   18       -6.994747   1.000000
   19       -6.963304   1.000000
   20       -6.963292   1.000000
   21       -6.962955   1.000000
   22       -6.952688   1.000000
   23       -6.746219   1.000000
   24       -6.709537   1.000000
   25       -6.709479   1.000000
   26       -6.698775   1.000000
   27       -6.696171   1.000000
   28       -6.695798   1.000000
   29       -6.695780   1.000000
   30       -6.491318   1.000000
   31       -6.490732   1.000000
   32       -6.257501   1.000000
   33       -6.240841   1.000000
   34       -6.238298   1.000000
   35       -6.238281   1.000000
   36       -6.195387   1.000000
   37       -6.195288   1.000000
   38       -6.100590   1.000000
   39       -6.064843   1.000000
   40       -6.064830   1.000000
   41       -6.063044   1.000000
   42       -6.056370   1.000000
   43       -6.056357   1.000000
   44       -6.052644   1.000000
   45       -5.968624   1.000000
   46       -5.968617   1.000000
   47       -5.967822   1.000000
   48       -5.928616   1.000000
   49       -5.928564   1.000000
   50       -5.809098   1.000000
   51       -5.704824   1.000000
   52       -5.698307   1.000000
   53       -5.698305   1.000000
   54       -5.696998   1.000000
   55       -5.681387   1.000000
   56       -5.681372   1.000000
   57       -5.652163   1.000000
   58       -5.575902   1.000000
   59       -5.575391   1.000000
   60       -5.575376   1.000000
   61       -5.538977   1.000000
   62       -5.538929   1.000000
   63       -5.493105   1.000000
   64       -5.220482   1.000000
   65       -5.218496   1.000000
   66       -5.218476   1.000000
   67       -5.198320   1.000000
   68       -5.197357   1.000000
   69       -5.197345   1.000000
   70       -5.068887   1.000000
   71       -5.014107   1.000000
   72       -5.014092   1.000000
   73       -5.013682   1.000000
   74       -5.001344   1.000000
   75       -5.001326   1.000000
   76       -4.950008   1.000000
   77       -4.913201   1.000000
   78       -4.911087   1.000000
   79       -4.911054   1.000000
   80       -4.907771   1.000000
   81       -4.828611   1.000000
   82       -4.828603   1.000000
   83       -4.828533   1.000000
   84       -4.812264   1.000000
   85       -4.812251   1.000000
   86       -4.795037   1.000000
   87       -4.758546   1.000000
   88       -4.758362   1.000000
   89       -4.758313   1.000000
   90       -4.745385   1.000000
   91       -4.742588   1.000000
   92       -4.742535   1.000000
   93       -4.722947   1.000000
   94       -4.722922   1.000000
   95       -4.706561   1.000000
   96       -4.691099   1.000000
   97       -4.690223   1.000000
   98       -4.690212   1.000000
   99       -4.688149   1.000000
  100       -4.688138   1.000000
  101       -4.687939   1.000000
  102       -4.687370   1.000000
  103       -4.687363   1.000000
  104       -4.687184   1.000000
  105       -4.686673   1.000000
  106       -4.685713   1.000000
  107       -4.685702   1.000000
  108       -4.601412   1.000000
  109       -4.599301   1.000000
  110       -4.599262   1.000000
  111       -4.525057   1.000000
  112       -4.525011   1.000000
  113       -4.523960   1.000000
  114       -4.480677   1.000000
  115       -4.480072   1.000000
  116       -4.480047   1.000000
  117       -4.479793   1.000000
  118       -4.479771   1.000000
  119       -4.479691   1.000000
  120       -4.478461   1.000000
  121       -4.478447   1.000000
  122       -4.477771   1.000000
  123       -4.477197   1.000000
  124       -4.476123   1.000000
  125       -4.476092   1.000000
  126       -4.456312   1.000000
  127       -4.456286   1.000000
  128       -4.454411   1.000000
  129       -4.449718   1.000000
  130       -4.449687   1.000000
  131       -4.441519   1.000000
  132       -4.441515   1.000000
  133       -4.440822   1.000000
  134       -4.440311   1.000000
  135       -4.440292   1.000000
  136       -4.439804   1.000000
  137       -4.438567   1.000000
  138       -4.436696   1.000000
  139       -4.434131   1.000000
  140       -4.434117   1.000000
  141       -4.433813   1.000000
  142       -4.433806   1.000000
  143       -4.412770   1.000000
  144       -4.363681   1.000000
  145       -4.363660   1.000000
  146       -4.362424   1.000000
  147       -4.359869   1.000000
  148       -4.359837   1.000000
  149       -4.334399   1.000000
  150       -4.316044   1.000000
  151       -4.313289   1.000000
  152       -4.313213   1.000000
  153       -4.303857   1.000000
  154       -4.303794   1.000000
  155       -4.300747   1.000000
  156       -4.299912   1.000000
  157       -4.299848   1.000000
  158       -4.288188   1.000000
  159       -4.283175   1.000000
  160       -4.283157   1.000000
  161       -4.281878   1.000000
  162       -4.281214   1.000000
  163       -4.281195   1.000000
  164       -4.278734   1.000000
  165       -4.277044   1.000000
  166       -4.277029   1.000000
  167       -4.276900   1.000000
  168       -4.265226   1.000000
  169       -4.265210   1.000000
  170       -4.256853   1.000000
  171       -4.185921   1.000000
  172       -4.185881   1.000000
  173       -4.185679   1.000000
  174       -4.175624   1.000000
  175       -4.175619   1.000000
  176       -4.174454   1.000000
  177       -4.166115   1.000000
  178       -4.166106   1.000000
  179       -4.149016   1.000000
  180       -4.070915   1.000000
  181       -4.070897   1.000000
  182       -4.070548   1.000000
  183       -4.069851   1.000000
  184       -4.067796   1.000000
  185       -4.067782   1.000000
  186       -4.065862   1.000000
  187       -4.065846   1.000000
  188       -4.064980   1.000000
  189       -4.063410   1.000000
  190       -4.063303   1.000000
  191       -4.063258   1.000000
  192       -4.027105   1.000000
  193       -4.027067   1.000000
  194       -4.013490   1.000000
  195       -3.987342   1.000000
  196       -3.985792   1.000000
  197       -3.985673   1.000000
  198       -3.935962   1.000000
  199       -3.935858   1.000000
  200       -3.934371   1.000000
  201       -3.932820   1.000000
  202       -3.931419   1.000000
  203       -3.931301   1.000000
  204       -3.915479   1.000000
  205       -3.915381   1.000000
  206       -3.909362   1.000000
  207       -3.909243   1.000000
  208       -3.909000   1.000000
  209       -3.908857   1.000000
  210       -3.907744   1.000000
  211       -3.907676   1.000000
  212       -3.906931   1.000000
  213       -3.906808   1.000000
  214       -3.906219   1.000000
  215       -3.906126   1.000000
  216       -3.904532   1.000000
  217       -3.904377   1.000000
  218       -3.896712   1.000000
  219       -3.878171   1.000000
  220       -3.878053   1.000000
  221       -3.876737   1.000000
  222       -3.870622   1.000000
  223       -3.870518   1.000000
  224       -3.858107   1.000000
  225       -3.815119   1.000000
  226       -3.813735   1.000000
  227       -3.813713   1.000000
  228       -3.809521   1.000000
  229       -3.809508   1.000000
  230       -3.808759   1.000000
  231       -3.808673   1.000000
  232       -3.808157   1.000000
  233       -3.808140   1.000000
  234       -3.801679   1.000000
  235       -3.801678   1.000000
  236       -3.801123   1.000000
  237       -3.799375   1.000000
  238       -3.799363   1.000000
  239       -3.798844   1.000000
  240       -3.798281   1.000000
  241       -3.797953   1.000000
  242       -3.797924   1.000000
  243       -3.796454   1.000000
  244       -3.796440   1.000000
  245       -3.795046   1.000000
  246       -3.767850   1.000000
  247       -3.767826   1.000000
  248       -3.752245   1.000000
  249       -3.741652   1.000000
  250       -3.741589   1.000000
  251       -3.740612   1.000000
  252       -3.738783   1.000000
  253       -3.738714   1.000000
  254       -3.735071   1.000000
  255       -3.692753   1.000000
  256       -3.692701   1.000000
  257       -3.690702   1.000000
  258       -3.690484   1.000000
  259       -3.690441   1.000000
  260       -3.689347   1.000000
  261       -3.688932   1.000000
  262       -3.688524   1.000000
  263       -3.688477   1.000000
  264       -3.687283   1.000000
  265       -3.687256   1.000000
  266       -3.684034   1.000000
  267       -3.683604   1.000000
  268       -3.683515   1.000000
  269       -3.683293   1.000000
  270       -3.674626   1.000000
  271       -3.663903   1.000000
  272       -3.663901   1.000000
  273       -3.660207   1.000000
  274       -3.660125   1.000000
  275       -3.652888   1.000000
  276       -3.652854   1.000000
  277       -3.651519   1.000000
  278       -3.651262   1.000000
  279       -3.650626   1.000000
  280       -3.650593   1.000000
  281       -3.650165   1.000000
  282       -3.632885   1.000000
  283       -3.628902   1.000000
  284       -3.628874   1.000000
  285       -3.623832   1.000000
  286       -3.623796   1.000000
  287       -3.622620   1.000000
  288       -3.606212   1.000000
  289       -3.606058   1.000000
  290       -3.604183   1.000000
  291       -3.597020   1.000000
  292       -3.596877   1.000000
  293       -3.579356   1.000000
  294       -3.534299   1.000000
  295       -3.526807   1.000000
  296       -3.518972   1.000000
  297       -3.518960   1.000000
  298       -3.514779   1.000000
  299       -3.514042   1.000000
  300       -3.513979   1.000000
  301       -3.513573   1.000000
  302       -3.513548   1.000000
  303       -3.512341   1.000000
  304       -3.509968   1.000000
  305       -3.509952   1.000000
  306       -3.508356   1.000000
  307       -3.493291   1.000000
  308       -3.493241   1.000000
  309       -3.479047   1.000000
  310       -3.467809   1.000000
  311       -3.467168   1.000000
  312       -3.467127   1.000000
  313       -3.465270   1.000000
  314       -3.465233   1.000000
  315       -3.460268   1.000000
  316       -3.423074   1.000000
  317       -3.423036   1.000000
  318       -3.419871   1.000000
  319       -3.416757   1.000000
  320       -3.416713   1.000000
  321       -3.414320   1.000000
  322       -3.411729   1.000000
  323       -3.411726   1.000000
  324       -3.401849   1.000000
  325       -3.401754   1.000000
  326       -3.401700   1.000000
  327       -3.401589   1.000000
  328       -3.401309   1.000000
  329       -3.400397   1.000000
  330       -3.400375   1.000000
  331       -3.396054   1.000000
  332       -3.395951   1.000000
  333       -3.388710   1.000000
  334       -3.387850   1.000000
  335       -3.387762   1.000000
  336       -3.379676   1.000000
  337       -3.378489   1.000000
  338       -3.378403   1.000000
  339       -3.319520   1.000000
  340       -3.295008   1.000000
  341       -3.295005   1.000000
  342       -3.292081   1.000000
  343       -3.266176   1.000000
  344       -3.266117   1.000000
  345       -3.261750   1.000000
  346       -3.259907   1.000000
  347       -3.259860   1.000000
  348       -3.258612   1.000000
  349       -3.246044   1.000000
  350       -3.246040   1.000000
  351       -3.232312   1.000000
  352       -3.232294   1.000000
  353       -3.220520   1.000000
  354       -3.218521   1.000000
  355       -3.218298   1.000000
  356       -3.218252   1.000000
  357       -3.218191   1.000000
  358       -3.217642   1.000000
  359       -3.217620   1.000000
  360       -3.215308   1.000000
  361       -3.215292   1.000000
  362       -3.202420   1.000000
  363       -3.202415   1.000000
  364       -3.174442   1.000000
  365       -3.165747   1.000000
  366       -3.165726   1.000000
  367       -3.160723   1.000000
  368       -3.160705   1.000000
  369       -3.159229   1.000000
  370       -3.154859   1.000000
  371       -3.127804   1.000000
  372       -3.127730   1.000000
  373       -3.127610   1.000000
  374       -3.127478   1.000000
  375       -3.126975   1.000000
  376       -3.126918   1.000000
  377       -3.125519   1.000000
  378       -3.125507   1.000000
  379       -3.124536   1.000000
  380       -3.124492   1.000000
  381       -3.123454   1.000000
  382       -3.107039   1.000000
  383       -3.087943   1.000000
  384       -3.087923   1.000000
  385       -3.084589   1.000000
  386       -3.084547   1.000000
  387       -3.083223   1.000000
  388       -3.083206   1.000000
  389       -3.082426   1.000000
  390       -3.082401   1.000000
  391       -3.082206   1.000000
  392       -3.082010   1.000000
  393       -3.081985   1.000000
  394       -3.081242   1.000000
  395       -3.036619   1.000000
  396       -3.036562   1.000000
  397       -3.036530   1.000000
  398       -3.036006   1.000000
  399       -3.035973   1.000000
  400       -3.025119   1.000000
  401       -2.944644   1.000000
  402       -2.943307   1.000000
  403       -2.943264   1.000000
  404       -2.942524   1.000000
  405       -2.940582   1.000000
  406       -2.940547   1.000000
  407       -2.936722   1.000000
  408       -2.935961   1.000000
  409       -2.935929   1.000000
  410       -2.934425   1.000000
  411       -2.934395   1.000000
  412       -2.933907   1.000000
  413       -2.932777   1.000000
  414       -2.932612   1.000000
  415       -2.932567   1.000000
  416       -2.932451   1.000000
  417       -2.930941   1.000000
  418       -2.930911   1.000000
  419       -2.929973   1.000000
  420       -2.929945   1.000000
  421       -2.929926   1.000000
  422       -2.927388   1.000000
  423       -2.927355   1.000000
  424       -2.924342   1.000000
  425       -2.923230   1.000000
  426       -2.923207   1.000000
  427       -2.922336   1.000000
  428       -2.921450   1.000000
  429       -2.921420   1.000000
  430       -2.919291   1.000000
  431       -2.914231   1.000000
  432       -2.914203   1.000000
  433       -2.913078   1.000000
  434       -2.913073   1.000000
  435       -2.908826   1.000000
  436       -2.908404   1.000000
  437       -2.898385   1.000000
  438       -2.898315   1.000000
  439       -2.894881   1.000000
  440       -2.890580   1.000000
  441       -2.890526   1.000000
  442       -2.884778   1.000000
  443       -2.848865   1.000000
  444       -2.848853   1.000000
  445       -2.846145   1.000000
  446       -2.845163   1.000000
  447       -2.845155   1.000000
  448       -2.844454   1.000000
  449       -2.844372   1.000000
  450       -2.843495   1.000000
  451       -2.843483   1.000000
  452       -2.842016   1.000000
  453       -2.841197   1.000000
  454       -2.841191   1.000000
  455       -2.822921   1.000000
  456       -2.817449   1.000000
  457       -2.817373   1.000000
  458       -2.816966   1.000000
  459       -2.816621   1.000000
  460       -2.816536   1.000000
  461       -2.811398   1.000000
  462       -2.804559   1.000000
  463       -2.804556   1.000000
  464       -2.775622   1.000000
  465       -2.775619   1.000000
  466       -2.769924   1.000000
  467       -2.768453   1.000000
  468       -2.742867   1.000000
  469       -2.739160   1.000000
  470       -2.739152   1.000000
  471       -2.737896   1.000000
  472       -2.737894   1.000000
  473       -2.735360   1.000000
  474       -2.734575   1.000000
  475       -2.734565   1.000000
  476       -2.726556   1.000000
  477       -2.725549   1.000000
  478       -2.723330   1.000000
  479       -2.723298   1.000000
  480       -2.721765   1.000000
  481       -2.721758   1.000000
  482       -2.720752   1.000000
  483       -2.720688   1.000000
  484       -2.720664   1.000000
  485       -2.717937   1.000000
  486       -2.717925   1.000000
  487       -2.717558   1.000000
  488       -2.714097   1.000000
  489       -2.714088   1.000000
  490       -2.712912   1.000000
  491       -2.711978   1.000000
  492       -2.711977   1.000000
  493       -2.706543   1.000000
  494       -2.696324   1.000000
  495       -2.696270   1.000000
  496       -2.689201   1.000000
  497       -2.682086   1.000000
  498       -2.682062   1.000000
  499       -2.679101   1.000000
  500       -2.677077   1.000000
  501       -2.677034   1.000000
  502       -2.674914   1.000000
  503       -2.672597   1.000000
  504       -2.672583   1.000000
  505       -2.663955   1.000000
  506       -2.652007   1.000000
  507       -2.651950   1.000000
  508       -2.650740   1.000000
  509       -2.650685   1.000000
  510       -2.648255   1.000000
  511       -2.644575   1.000000
  512       -2.616408   1.000000
  513       -2.616404   1.000000
  514       -2.597097   1.000000
  515       -2.596785   1.000000
  516       -2.576339   1.000000
  517       -2.576297   1.000000
  518       -2.576295   1.000000
  519       -2.573180   1.000000
  520       -2.572657   1.000000
  521       -2.572638   1.000000
  522       -2.571673   1.000000
  523       -2.571654   1.000000
  524       -2.569852   1.000000
  525       -2.569828   1.000000
  526       -2.568868   1.000000
  527       -2.568669   1.000000
  528       -2.565943   1.000000
  529       -2.565899   1.000000
  530       -2.561358   1.000000
  531       -2.555684   1.000000
  532       -2.555636   1.000000
  533       -2.554583   1.000000
  534       -2.554557   1.000000
  535       -2.554203   1.000000
  536       -2.548155   1.000000
  537       -2.523247   1.000000
  538       -2.509298   1.000000
  539       -2.507088   1.000000
  540       -2.507080   1.000000
  541       -2.493878   1.000000
  542       -2.491379   1.000000
  543       -2.491139   1.000000
  544       -2.491099   1.000000
  545       -2.490216   1.000000
  546       -2.490184   1.000000
  547       -2.488386   1.000000
  548       -2.488058   1.000000
  549       -2.488053   1.000000
  550       -2.487388   1.000000
  551       -2.486347   1.000000
  552       -2.486306   1.000000
  553       -2.486083   1.000000
  554       -2.484138   1.000000
  555       -2.484109   1.000000
  556       -2.470653   1.000000
  557       -2.470502   1.000000
  558       -2.459039   1.000000
  559       -2.456357   1.000000
  560       -2.456332   1.000000
  561       -2.451506   1.000000
  562       -2.451489   1.000000
  563       -2.451257   1.000000
  564       -2.448068   1.000000
  565       -2.447988   1.000000
  566       -2.447920   1.000000
  567       -2.447543   1.000000
  568       -2.446713   1.000000
  569       -2.446650   1.000000
  570       -2.445327   1.000000
  571       -2.442871   1.000000
  572       -2.442785   1.000000
  573       -2.432716   1.000000
  574       -2.432478   1.000000
  575       -2.432465   1.000000
  576       -2.430731   1.000000
  577       -2.430726   1.000000
  578       -2.428625   1.000000
  579       -2.428458   1.000000
  580       -2.428394   1.000000
  581       -2.428109   1.000000
  582       -2.427509   1.000000
  583       -2.427340   1.000000
  584       -2.424234   1.000000
  585       -2.424213   1.000000
  586       -2.423266   1.000000
  587       -2.408948   1.000000
  588       -2.408941   1.000000
  589       -2.404939   1.000000
  590       -2.404400   1.000000
  591       -2.404399   1.000000
  592       -2.399940   1.000000
  593       -2.391247   1.000000
  594       -2.380058   1.000000
  595       -2.379993   1.000000
  596       -2.370554   1.000000
  597       -2.370479   1.000000
  598       -2.369993   1.000000
  599       -2.368682   1.000000
  600       -2.366123   1.000000
  601       -2.366051   1.000000
  602       -2.365722   1.000000
  603       -2.365654   1.000000
  604       -2.358602   1.000000
  605       -2.348296   1.000000
  606       -2.343962   1.000000
  607       -2.343909   1.000000
  608       -2.343486   1.000000
  609       -2.340958   1.000000
  610       -2.338567   1.000000
  611       -2.338515   1.000000
  612       -2.317768   1.000000
  613       -2.317561   1.000000
  614       -2.307261   1.000000
  615       -2.307207   1.000000
  616       -2.297435   1.000000
  617       -2.294207   1.000000
  618       -2.294040   1.000000
  619       -2.285968   1.000000
  620       -2.283497   1.000000
  621       -2.283423   1.000000
  622       -2.283394   1.000000
  623       -2.267392   1.000000
  624       -2.265827   1.000000
  625       -2.265788   1.000000
  626       -2.257379   1.000000
  627       -2.257330   1.000000
  628       -2.257262   1.000000
  629       -2.256003   1.000000
  630       -2.255901   1.000000
  631       -2.255371   1.000000
  632       -2.248932   1.000000
  633       -2.248871   1.000000
  634       -2.231932   1.000000
  635       -2.224615   1.000000
  636       -2.206818   1.000000
  637       -2.206780   1.000000
  638       -2.198431   1.000000
  639       -2.195451   1.000000
  640       -2.195254   1.000000
  641       -2.192289   1.000000
  642       -2.190282   1.000000
  643       -2.190218   1.000000
  644       -2.189878   1.000000
  645       -2.189266   1.000000
  646       -2.189204   1.000000
  647       -2.188813   1.000000
  648       -2.188773   1.000000
  649       -2.188002   1.000000
  650       -2.186400   1.000000
  651       -2.186365   1.000000
  652       -2.185387   1.000000
  653       -2.185380   1.000000
  654       -2.185003   1.000000
  655       -2.184977   1.000000
  656       -2.183827   1.000000
  657       -2.182814   1.000000
  658       -2.182797   1.000000
  659       -2.180922   1.000000
  660       -2.171477   1.000000
  661       -2.171462   1.000000
  662       -2.170793   1.000000
  663       -2.167385   1.000000
  664       -2.167378   1.000000
  665       -2.163996   1.000000
  666       -2.145751   1.000000
  667       -2.145681   1.000000
  668       -2.138608   1.000000
  669       -2.137904   1.000000
  670       -2.137829   1.000000
  671       -2.130721   1.000000
  672       -2.130649   1.000000
  673       -2.128834   1.000000
  674       -2.127619   1.000000
  675       -2.127562   1.000000
  676       -2.125642   1.000000
  677       -2.124295   1.000000
  678       -2.124207   1.000000
  679       -2.123517   1.000000
  680       -2.123271   1.000000
  681       -2.120206   1.000000
  682       -2.120150   1.000000
  683       -2.102933   1.000000
  684       -2.102873   1.000000
  685       -2.093200   1.000000
  686       -2.088617   1.000000
  687       -2.088569   1.000000
  688       -2.088523   1.000000
  689       -2.081163   1.000000
  690       -2.081064   1.000000
  691       -2.077593   1.000000
  692       -2.076981   1.000000
  693       -2.076883   1.000000
  694       -2.076299   1.000000
  695       -2.073711   1.000000
  696       -2.073606   1.000000
  697       -2.073074   1.000000
  698       -2.070701   1.000000
  699       -2.064266   1.000000
  700       -2.064255   1.000000
  701       -2.061255   1.000000
  702       -2.059616   1.000000
  703       -2.059505   1.000000
  704       -2.058238   1.000000
  705       -2.058217   1.000000
  706       -2.057894   1.000000
  707       -2.057859   1.000000
  708       -2.056303   1.000000
  709       -2.054986   1.000000
  710       -2.054929   1.000000
  711       -2.052198   1.000000
  712       -2.043655   1.000000
  713       -2.043469   1.000000
  714       -2.041319   1.000000
  715       -2.023847   1.000000
  716       -2.023776   1.000000
  717       -2.012697   1.000000
  718       -2.011065   1.000000
  719       -2.010987   1.000000
  720       -2.009005   1.000000
  721       -2.008951   1.000000
  722       -2.004524   1.000000
  723       -2.001829   1.000000
  724       -2.001788   1.000000
  725       -2.000594   1.000000
  726       -2.000559   1.000000
  727       -1.996679   1.000000
  728       -1.992332   1.000000
  729       -1.975309   1.000000
  730       -1.970554   1.000000
  731       -1.970531   1.000000
  732       -1.967222   1.000000
  733       -1.967128   1.000000
  734       -1.964250   1.000000
  735       -1.962242   1.000000
  736       -1.960797   1.000000
  737       -1.960752   1.000000
  738       -1.960169   1.000000
  739       -1.960165   1.000000
  740       -1.956879   1.000000
  741       -1.956853   1.000000
  742       -1.956379   1.000000
  743       -1.955093   1.000000
  744       -1.950215   1.000000
  745       -1.950184   1.000000
  746       -1.936413   1.000000
  747       -1.906307   1.000000
  748       -1.906299   1.000000
  749       -1.898297   1.000000
  750       -1.898284   1.000000
  751       -1.896486   1.000000
  752       -1.894385   1.000000
  753       -1.892558   1.000000
  754       -1.892536   1.000000
  755       -1.891958   1.000000
  756       -1.881826   1.000000
  757       -1.876515   1.000000
  758       -1.876490   1.000000
  759       -1.870722   1.000000
  760       -1.870692   1.000000
  761       -1.868451   1.000000
  762       -1.861736   1.000000
  763       -1.861716   1.000000
  764       -1.860798   1.000000
  765       -1.860773   1.000000
  766       -1.859610   1.000000
  767       -1.858907   1.000000
  768       -1.858787   1.000000
  769       -1.858770   1.000000
  770       -1.858233   1.000000
  771       -1.856592   1.000000
  772       -1.856399   1.000000
  773       -1.856329   1.000000
  774       -1.855805   1.000000
  775       -1.855629   1.000000
  776       -1.855617   1.000000
  777       -1.850379   1.000000
  778       -1.850341   1.000000
  779       -1.849466   1.000000
  780       -1.849389   1.000000
  781       -1.849356   1.000000
  782       -1.847856   1.000000
  783       -1.845418   1.000000
  784       -1.845396   1.000000
  785       -1.843434   1.000000
  786       -1.841381   1.000000
  787       -1.841353   1.000000
  788       -1.840917   1.000000
  789       -1.840822   1.000000
  790       -1.834579   1.000000
  791       -1.834555   1.000000
  792       -1.833842   1.000000
  793       -1.827005   1.000000
  794       -1.826960   1.000000
  795       -1.824468   1.000000
  796       -1.824405   1.000000
  797       -1.820892   1.000000
  798       -1.816567   1.000000
  799       -1.816544   1.000000
  800       -1.815346   1.000000
  801       -1.806893   1.000000
  802       -1.806876   1.000000
  803       -1.802544   1.000000
  804       -1.802532   1.000000
  805       -1.801036   1.000000
  806       -1.794296   1.000000
  807       -1.779245   1.000000
  808       -1.779205   1.000000
  809       -1.779185   1.000000
  810       -1.779156   1.000000
  811       -1.777798   1.000000
  812       -1.776985   1.000000
  813       -1.766135   1.000000
  814       -1.766108   1.000000
  815       -1.755998   1.000000
  816       -1.750489   1.000000
  817       -1.746502   1.000000
  818       -1.746481   1.000000
  819       -1.741230   1.000000
  820       -1.741211   1.000000
  821       -1.741117   1.000000
  822       -1.733706   1.000000
  823       -1.733694   1.000000
  824       -1.731386   1.000000
  825       -1.730182   1.000000
  826       -1.730179   1.000000
  827       -1.726748   1.000000
  828       -1.726541   1.000000
  829       -1.726513   1.000000
  830       -1.717920   1.000000
  831       -1.708926   1.000000
  832       -1.708857   1.000000
  833       -1.699588   1.000000
  834       -1.699385   1.000000
  835       -1.698755   1.000000
  836       -1.698728   1.000000
  837       -1.693856   1.000000
  838       -1.693799   1.000000
  839       -1.691273   1.000000
  840       -1.691241   1.000000
  841       -1.691157   1.000000
  842       -1.690612   1.000000
  843       -1.688507   1.000000
  844       -1.688471   1.000000
  845       -1.686809   1.000000
  846       -1.686799   1.000000
  847       -1.683310   1.000000
  848       -1.683260   1.000000
  849       -1.682756   1.000000
  850       -1.679967   1.000000
  851       -1.675843   1.000000
  852       -1.675823   1.000000
  853       -1.675767   1.000000
  854       -1.669905   1.000000
  855       -1.650400   1.000000
  856       -1.650356   1.000000
  857       -1.649383   1.000000
  858       -1.649346   1.000000
  859       -1.646499   1.000000
  860       -1.645868   1.000000
  861       -1.629908   1.000000
  862       -1.629903   1.000000
  863       -1.617431   1.000000
  864       -1.617415   1.000000
  865       -1.613171   1.000000
  866       -1.607945   1.000000
  867       -1.607923   1.000000
  868       -1.607348   1.000000
  869       -1.595029   1.000000
  870       -1.594538   1.000000
  871       -1.592595   1.000000
  872       -1.592590   1.000000
  873       -1.590181   1.000000
  874       -1.590177   1.000000
  875       -1.589625   1.000000
  876       -1.588427   1.000000
  877       -1.586372   1.000000
  878       -1.586358   1.000000
  879       -1.568591   1.000000
  880       -1.568569   1.000000
  881       -1.552918   1.000000
  882       -1.552905   1.000000
  883       -1.547560   1.000000
  884       -1.547131   1.000000
  885       -1.547114   1.000000
  886       -1.543290   1.000000
  887       -1.529755   1.000000
  888       -1.527645   1.000000
  889       -1.527577   1.000000
  890       -1.526801   1.000000
  891       -1.522739   1.000000
  892       -1.522674   1.000000
  893       -1.512932   1.000000
  894       -1.499868   1.000000
  895       -1.499832   1.000000
  896       -1.499400   1.000000
  897       -1.492017   1.000000
  898       -1.492006   1.000000
  899       -1.489207   1.000000
  900       -1.480428   1.000000
  901       -1.480366   1.000000