 running on    1 total cores
 distrk:  each k-point on    1 cores,    1 groups
 distr:  one band on    1 cores,    1 groups
 OpenACC runtime initialized ...    1 GPUs detected
 vasp.6.2.1 16May21 (build Jun 16 2021 03:23:30) complex                         
 POSCAR found type information on POSCAR NiO 
 POSCAR found :  2 types and     253 ions
 scaLAPACK will be used selectively (only on CPU)
 LDA part: xc-table for Pade appr. of Perdew
 POSCAR found type information on POSCAR NiO 
 POSCAR found :  2 types and     253 ions
 POSCAR, INCAR and KPOINTS ok, starting setup
 FFT: planning ...
 WAVECAR not read
 entering main loop
       N       E                     dE             d eps       ncg     rms          rms(c)
DAV:   1     0.222635574862E+05    0.22264E+05   -0.98289E+05  6076   0.134E+03
DAV:   2     0.798484669004E+02   -0.22184E+05   -0.21195E+05  6060   0.469E+02
DAV:   3    -0.133618249242E+04   -0.14160E+04   -0.11888E+04  6728   0.131E+02
DAV:   4    -0.155754871600E+04   -0.22137E+03   -0.18812E+03 10768   0.489E+01
DAV:   5    -0.156804705966E+04   -0.10498E+02   -0.10001E+02  9400   0.117E+01    0.140E+02
DAV:   6    -0.196201959086E+04   -0.39397E+03   -0.27608E+03  8080   0.173E+02    0.293E+02
DAV:   7    -0.171822434900E+04    0.24380E+03   -0.10116E+03  6640   0.139E+02    0.229E+02
DAV:   8    -0.158534485137E+04    0.13288E+03   -0.69288E+02  7984   0.112E+02    0.199E+02
DAV:   9    -0.196038047573E+04   -0.37504E+03   -0.32681E+02  6840   0.144E+02    0.246E+02
DAV:  10    -0.157188920419E+04    0.38849E+03   -0.27370E+02  7720   0.925E+01    0.177E+02
DAV:  11    -0.160941412605E+04   -0.37525E+02   -0.27402E+02  7128   0.988E+01    0.192E+02
DAV:  12    -0.155505310222E+04    0.54361E+02   -0.24806E+02  6536   0.964E+01    0.186E+02
DAV:  13    -0.147574669969E+04    0.79306E+02   -0.14719E+02  6440   0.598E+01    0.165E+02
DAV:  14    -0.145799310142E+04    0.17754E+02   -0.86025E+01  6376   0.561E+01    0.143E+02
DAV:  15    -0.148026665619E+04   -0.22274E+02   -0.86255E+01  6600   0.585E+01    0.175E+02
DAV:  16    -0.150335937865E+04   -0.23093E+02   -0.74528E+01  6408   0.558E+01    0.191E+02
DAV:  17    -0.142997322377E+04    0.73386E+02   -0.46644E+01  6328   0.398E+01    0.158E+02
DAV:  18    -0.136592582485E+04    0.64047E+02   -0.33978E+01  6312   0.374E+01    0.108E+02
DAV:  19    -0.133175571319E+04    0.34170E+02   -0.23603E+01  6360   0.293E+01    0.539E+01
DAV:  20    -0.133782690436E+04   -0.60712E+01   -0.19308E+01  6536   0.257E+01    0.662E+01
DAV:  21    -0.134077406898E+04   -0.29472E+01   -0.14600E+01  6456   0.239E+01    0.756E+01
DAV:  22    -0.132983674342E+04    0.10937E+02   -0.90121E+00  6440   0.167E+01    0.433E+01
DAV:  23    -0.132574281368E+04    0.40939E+01   -0.42841E+00  6616   0.114E+01    0.317E+01
DAV:  24    -0.132618475544E+04   -0.44194E+00   -0.28318E+00  6616   0.918E+00    0.342E+01
DAV:  25    -0.132675658305E+04   -0.57183E+00   -0.30006E+00  6592   0.966E+00    0.358E+01
DAV:  26    -0.132455355320E+04    0.22030E+01   -0.22652E+00  6616   0.856E+00    0.241E+01
DAV:  27    -0.132457091518E+04   -0.17362E-01   -0.16846E+00  6896   0.721E+00    0.263E+01
DAV:  28    -0.132502733999E+04   -0.45642E+00   -0.16839E+00  6696   0.719E+00    0.278E+01
DAV:  29    -0.132564233745E+04   -0.61500E+00   -0.20687E+00  6696   0.888E+00    0.317E+01
DAV:  30    -0.132387568641E+04    0.17667E+01   -0.16041E+00  6968   0.739E+00    0.179E+01
DAV:  31    -0.132402411349E+04   -0.14843E+00   -0.10571E+00  7032   0.594E+00    0.195E+01
DAV:  32    -0.132415322050E+04   -0.12911E+00   -0.99941E-01  6744   0.607E+00    0.199E+01
DAV:  33    -0.132349899555E+04    0.65422E+00   -0.74892E-01  6776   0.537E+00    0.146E+01
DAV:  34    -0.132319563008E+04    0.30337E+00   -0.48145E-01  6840   0.427E+00    0.107E+01
DAV:  35    -0.132324965169E+04   -0.54022E-01   -0.36531E-01  6728   0.351E+00    0.122E+01
DAV:  36    -0.132304808418E+04    0.20157E+00   -0.29137E-01  6712   0.308E+00    0.944E+00
DAV:  37    -0.132293336376E+04    0.11472E+00   -0.12443E-01  6776   0.175E+00    0.674E+00
DAV:  38    -0.132291893017E+04    0.14434E-01   -0.64731E-02  6744   0.116E+00    0.633E+00
DAV:  39    -0.132288441860E+04    0.34512E-01   -0.41451E-02  6688   0.915E-01    0.499E+00
DAV:  40    -0.132286857763E+04    0.15841E-01   -0.24623E-02  6760   0.744E-01    0.396E+00
DAV:  41    -0.132286387994E+04    0.46977E-02   -0.22623E-02  6760   0.801E-01    0.379E+00
DAV:  42    -0.132284326117E+04    0.20619E-01   -0.19536E-02  6696   0.714E-01    0.301E+00
DAV:  43    -0.132287809855E+04   -0.34837E-01   -0.26617E-02  7528   0.870E-01    0.497E+00
DAV:  44    -0.132287979168E+04   -0.16931E-02   -0.25965E-02  7144   0.871E-01    0.545E+00
DAV:  45    -0.132286936477E+04    0.10427E-01   -0.22611E-02  7176   0.867E-01    0.472E+00
DAV:  46    -0.132284530711E+04    0.24058E-01   -0.19107E-02  7080   0.824E-01    0.294E+00
DAV:  47    -0.132285514065E+04   -0.98335E-02   -0.12725E-02  7160   0.642E-01    0.378E+00
DAV:  48    -0.132284288917E+04    0.12251E-01   -0.69811E-03  7056   0.386E-01    0.309E+00
DAV:  49    -0.132283870105E+04    0.41881E-02   -0.42962E-03  7512   0.169E-01    0.276E+00
DAV:  50    -0.132283860786E+04    0.93189E-04   -0.19586E-03  7048   0.198E-01    0.277E+00
DAV:  51    -0.132283754311E+04    0.10647E-02   -0.15526E-02 10728   0.526E-01    0.228E+00
DAV:  52    -0.132283301555E+04    0.45276E-02   -0.54384E-03  8880   0.362E-01    0.153E+00
DAV:  53    -0.132284037971E+04   -0.73642E-02   -0.48719E-03  8440   0.406E-01    0.267E+00
DAV:  54    -0.132283612071E+04    0.42590E-02   -0.29004E-03  7656   0.288E-01    0.189E+00
DAV:  55    -0.132283722892E+04   -0.11082E-02   -0.39156E-03  7872   0.339E-01    0.170E+00
DAV:  56    -0.132283345097E+04    0.37779E-02   -0.40994E-03  7776   0.358E-01    0.905E-01
DAV:  57    -0.132283537908E+04   -0.19281E-02   -0.28378E-03  8072   0.260E-01    0.118E+00
DAV:  58    -0.132283502018E+04    0.35890E-03   -0.21479E-03  7536   0.242E-01    0.708E-01
DAV:  59    -0.132283518720E+04   -0.16702E-03   -0.12890E-03  7776   0.192E-01    0.602E-01
DAV:  60    -0.132283637554E+04   -0.11883E-02   -0.14057E-03  7680   0.195E-01
 -----------------------------------------------------------------------------
|                                                                             |
|           W    W    AA    RRRRR   N    N  II  N    N   GGGG   !!!           |
|           W    W   A  A   R    R  NN   N  II  NN   N  G    G  !!!           |
|           W    W  A    A  R    R  N N  N  II  N N  N  G       !!!           |
|           W WW W  AAAAAA  RRRRR   N  N N  II  N  N N  G  GGG   !            |
|           WW  WW  A    A  R   R   N   NN  II  N   NN  G    G                |
|           W    W  A    A  R    R  N    N  II  N    N   GGGG   !!!           |
|                                                                             |
|     The electronic self-consistency was not achieved in the given           |
|     number of steps (NELM). The forces and other quantities evaluated       |
|     might not be reliable so examine the results carefully. If you find     |
|     spurious results, we suggest increasing NELM, if you were close to      |
|     convergence or switching to a different ALGO or adjusting the           |
|     density mixing parameters otherwise.                                    |
|                                                                             |
 -----------------------------------------------------------------------------

   1 F= -.14200883E+04 E0= -.14193521E+04  d E =-.142009E+04
 curvature:   0.00 expect dE= 0.000E+00 dE for cont linesearch  0.000E+00
 trial: gam= 0.00000 g(F)=  0.434E+00 g(S)=  0.000E+00 ort = 0.000E+00 (trialstep = 0.100E+01)
 search vector abs. value=  0.434E+00
 bond charge predicted
       N       E                     dE             d eps       ncg     rms          rms(c)
DAV:   1    -0.132305005869E+04   -0.21487E+00   -0.70162E+01  6119   0.809E+00    0.412E+00
DAV:   2    -0.132818330370E+04   -0.51332E+01   -0.27131E+00  6744   0.798E+00    0.418E+01
DAV:   3    -0.132402504120E+04    0.41583E+01   -0.17274E+00  6608   0.892E+00    0.177E+01
DAV:   4    -0.132447131841E+04   -0.44628E+00   -0.91162E-01  6696   0.590E+00    0.235E+01
DAV:   5    -0.132499092273E+04   -0.51960E+00   -0.12816E+00  7008   0.665E+00    0.228E+01
DAV:   6    -0.132429803247E+04    0.69289E+00   -0.84662E-01  6760   0.623E+00    0.218E+01
DAV:   7    -0.132450741486E+04   -0.20938E+00   -0.53331E-01  6728   0.442E+00    0.264E+01
DAV:   8    -0.132357603869E+04    0.93138E+00   -0.72659E-01  6704   0.388E+00    0.130E+01
DAV:   9    -0.132332818051E+04    0.24786E+00   -0.16352E-01  6640   0.234E+00    0.629E+00
DAV:  10    -0.132338283687E+04   -0.54656E-01   -0.15117E-01  6696   0.220E+00    0.775E+00
DAV:  11    -0.132334769822E+04    0.35139E-01   -0.14598E-01  6800   0.198E+00    0.781E+00
DAV:  12    -0.132323156037E+04    0.11614E+00   -0.73698E-02  6728   0.146E+00    0.280E+00
DAV:  13    -0.132324643763E+04   -0.14877E-01   -0.33891E-02  6680   0.940E-01    0.390E+00
DAV:  14    -0.132324725188E+04   -0.81425E-03   -0.40800E-02  6680   0.924E-01    0.391E+00
DAV:  15    -0.132322133303E+04    0.25919E-01   -0.24676E-02  6824   0.806E-01    0.216E+00
DAV:  16    -0.132322166500E+04   -0.33197E-03   -0.11433E-02  6864   0.605E-01    0.207E+00
DAV:  17    -0.132322771831E+04   -0.60533E-02   -0.12281E-02  6720   0.669E-01    0.237E+00
DAV:  18    -0.132321555163E+04    0.12167E-01   -0.96359E-03  6728   0.593E-01    0.129E+00
DAV:  19    -0.132321399925E+04    0.15524E-02   -0.29260E-03  6768   0.314E-01    0.108E+00
DAV:  20    -0.132321650254E+04   -0.25033E-02   -0.32720E-03  6720   0.338E-01    0.128E+00
DAV:  21    -0.132321340614E+04    0.30964E-02   -0.30552E-03  6688   0.330E-01    0.738E-01
DAV:  22    -0.132321240142E+04    0.10047E-02   -0.11879E-03  6720   0.207E-01    0.457E-01
DAV:  23    -0.132321340762E+04   -0.10062E-02   -0.10261E-03  6816   0.189E-01    0.718E-01
DAV:  24    -0.132321308186E+04    0.32576E-03   -0.10399E-03  6792   0.191E-01    0.631E-01
DAV:  25    -0.132321242160E+04    0.66026E-03   -0.52121E-04  6776   0.128E-01    0.412E-01
DAV:  26    -0.132321240769E+04    0.13904E-04   -0.18525E-04  7032   0.658E-02    0.367E-01
DAV:  27    -0.132321240963E+04   -0.19418E-05   -0.19150E-04  6944   0.775E-02    0.254E-01
DAV:  28    -0.132321234026E+04    0.69371E-04   -0.12995E-04  6896   0.659E-02    0.202E-01
DAV:  29    -0.132321239292E+04   -0.52659E-04   -0.79056E-05  7000   0.456E-02    0.214E-01
DAV:  30    -0.132321241714E+04   -0.24223E-04   -0.73706E-05  6896   0.485E-02    0.133E-01
DAV:  31    -0.132321239520E+04    0.21948E-04   -0.42375E-05  6640   0.381E-02    0.654E-02
DAV:  32    -0.132321243653E+04   -0.41336E-04   -0.19633E-05  4664   0.219E-02    0.913E-02
DAV:  33    -0.132321245276E+04   -0.16231E-04   -0.16867E-05  4592   0.206E-02    0.816E-02
DAV:  34    -0.132321246205E+04   -0.92899E-05   -0.71131E-06  3400   0.129E-02    0.743E-02
DAV:  35    -0.132321249629E+04   -0.34233E-04   -0.84601E-06  3880   0.164E-02    0.538E-02
DAV:  36    -0.132321251731E+04   -0.21019E-04   -0.72468E-06  3840   0.154E-02    0.313E-02
DAV:  37    -0.132321253025E+04   -0.12940E-04   -0.40255E-06  3448   0.838E-03    0.318E-02
DAV:  38    -0.132321256002E+04   -0.29777E-04   -0.43529E-06  3752   0.819E-03    0.225E-02
DAV:  39    -0.132321256606E+04   -0.60415E-05   -0.24240E-06  3328   0.609E-03    0.147E-02
DAV:  40    -0.132321257905E+04   -0.12985E-04   -0.17172E-06  3488   0.489E-03    0.178E-02
DAV:  41    -0.132321260534E+04   -0.26296E-04   -0.23328E-06  3648   0.533E-03    0.136E-02
DAV:  42    -0.132321261270E+04   -0.73595E-05   -0.15342E-06  3440   0.419E-03    0.127E-02
DAV:  43    -0.132321263847E+04   -0.25766E-04   -0.23166E-06  3624   0.481E-03    0.150E-02
DAV:  44    -0.132321264693E+04   -0.84583E-05   -0.18335E-06  3584   0.473E-03    0.948E-03
DAV:  45    -0.132321265262E+04   -0.56881E-05   -0.10927E-06  3328   0.316E-03    0.129E-02
DAV:  46    -0.132321266177E+04   -0.91549E-05   -0.13089E-06  3608   0.356E-03    0.924E-03
DAV:  47    -0.132321266325E+04   -0.14745E-05   -0.76596E-07  3272   0.260E-03
   2 F= -.14204935E+04 E0= -.14197592E+04  d E =-.405195E+00
 trial-energy change:   -0.405195  1 .order   -0.402136   -0.434400   -0.369872
 step:   3.7670(harm=  6.7320)  dis= 0.09329  next Energy= -1421.070020 (dE=-0.982E+00)
 bond charge predicted
       N       E                     dE             d eps       ncg     rms          rms(c)
DAV:   1    -0.132206897657E+04    0.11437E+01   -0.55301E+02  6143   0.227E+01    0.152E+01
DAV:   2    -0.134091840573E+04   -0.18849E+02   -0.17505E+01  6640   0.175E+01    0.624E+01
DAV:   3    -0.135923128445E+04   -0.18313E+02   -0.91058E+00  6600   0.311E+01    0.979E+01
DAV:   4    -0.137609903299E+04   -0.16868E+02   -0.94862E+00  7048   0.311E+01    0.123E+02
DAV:   5    -0.135201949786E+04    0.24080E+02   -0.12941E+01  7024   0.255E+01    0.969E+01
DAV:   6    -0.132981227568E+04    0.22207E+02   -0.63169E+00  6768   0.203E+01    0.397E+01
DAV:   7    -0.133454325138E+04   -0.47310E+01   -0.43073E+00  6760   0.168E+01    0.620E+01
DAV:   8    -0.133100271508E+04    0.35405E+01   -0.40210E+00  6768   0.135E+01    0.436E+01
DAV:   9    -0.132718133809E+04    0.38214E+01   -0.32895E+00  6640   0.122E+01    0.303E+01
DAV:  10    -0.132499860586E+04    0.21827E+01   -0.16969E+00  6616   0.869E+00    0.215E+01
DAV:  11    -0.132420518636E+04    0.79342E+00   -0.73462E-01  6672   0.432E+00    0.137E+01
DAV:  12    -0.132409155682E+04    0.11363E+00   -0.37523E-01  6704   0.326E+00    0.123E+01
DAV:  13    -0.132448237094E+04   -0.39081E+00   -0.42894E-01  6744   0.379E+00    0.185E+01
DAV:  14    -0.132405264214E+04    0.42973E+00   -0.45988E-01  6656   0.362E+00    0.119E+01
DAV:  15    -0.132384329509E+04    0.20935E+00   -0.20043E-01  6680   0.260E+00    0.687E+00
DAV:  16    -0.132387227149E+04   -0.28976E-01   -0.15771E-01  7112   0.227E+00    0.754E+00
DAV:  17    -0.132384572404E+04    0.26547E-01   -0.13791E-01  6776   0.231E+00    0.695E+00
DAV:  18    -0.132375556582E+04    0.90158E-01   -0.11064E-01  6720   0.183E+00    0.515E+00
DAV:  19    -0.132373300354E+04    0.22562E-01   -0.42187E-02  6856   0.894E-01    0.351E+00
DAV:  20    -0.132378184222E+04   -0.48839E-01   -0.51666E-02  6904   0.127E+00    0.527E+00
DAV:  21    -0.132376408290E+04    0.17759E-01   -0.62626E-02  6864   0.145E+00    0.500E+00
DAV:  22    -0.132376338417E+04    0.69872E-03   -0.37231E-02  6952   0.108E+00    0.468E+00
DAV:  23    -0.132377640578E+04   -0.13022E-01   -0.52757E-02  6904   0.131E+00    0.484E+00
DAV:  24    -0.132372339080E+04    0.53015E-01   -0.34403E-02  6808   0.118E+00    0.225E+00
DAV:  25    -0.132371628563E+04    0.71052E-02   -0.80576E-03  6776   0.470E-01    0.176E+00
DAV:  26    -0.132371860189E+04   -0.23163E-02   -0.70494E-03  6640   0.463E-01    0.198E+00
DAV:  27    -0.132371164668E+04    0.69552E-02   -0.67506E-03  6616   0.481E-01    0.117E+00
DAV:  28    -0.132371226388E+04   -0.61719E-03   -0.35052E-03  7080   0.318E-01    0.118E+00
DAV:  29    -0.132371352828E+04   -0.12644E-02   -0.40117E-03  6952   0.380E-01    0.151E+00
DAV:  30    -0.132371120850E+04    0.23198E-02   -0.28186E-03  6944   0.315E-01    0.132E+00
DAV:  31    -0.132371153116E+04   -0.32265E-03   -0.17340E-03  7112   0.227E-01    0.124E+00
DAV:  32    -0.132370974594E+04    0.17852E-02   -0.17916E-03  6952   0.249E-01    0.758E-01
DAV:  33    -0.132370923091E+04    0.51503E-03   -0.10067E-03  6856   0.172E-01    0.689E-01
DAV:  34    -0.132370985530E+04   -0.62439E-03   -0.71606E-04  7160   0.153E-01    0.893E-01
DAV:  35    -0.132370941085E+04    0.44445E-03   -0.62048E-04  7032   0.140E-01    0.855E-01
DAV:  36    -0.132370938560E+04    0.25252E-04   -0.43900E-04  7160   0.110E-01    0.777E-01
DAV:  37    -0.132370888034E+04    0.50526E-03   -0.58417E-04  7064   0.155E-01    0.373E-01
DAV:  38    -0.132370881233E+04    0.68006E-04   -0.30079E-04  7080   0.108E-01    0.408E-01
DAV:  39    -0.132370882434E+04   -0.12004E-04   -0.16888E-04  7272   0.635E-02    0.364E-01
DAV:  40    -0.132370875712E+04    0.67220E-04   -0.13539E-04  6936   0.639E-02    0.238E-01
DAV:  41    -0.132370872234E+04    0.34775E-04   -0.52025E-05  6568   0.370E-02    0.191E-01
DAV:  42    -0.132370875552E+04   -0.33182E-04   -0.30782E-05  6088   0.282E-02    0.166E-01
DAV:  43    -0.132370874905E+04    0.64701E-05   -0.25618E-05  5752   0.270E-02    0.105E-01
DAV:  44    -0.132370876294E+04   -0.13889E-04   -0.95656E-06  3648   0.164E-02    0.106E-01
DAV:  45    -0.132370881031E+04   -0.47364E-04   -0.11862E-05  4088   0.184E-02    0.845E-02
DAV:  46    -0.132370882162E+04   -0.11319E-04   -0.91297E-06  3824   0.162E-02    0.620E-02
DAV:  47    -0.132370884057E+04   -0.18950E-04   -0.50414E-06  3640   0.116E-02    0.344E-02
DAV:  48    -0.132370886777E+04   -0.27196E-04   -0.54234E-06  3808   0.102E-02    0.223E-02
DAV:  49    -0.132370887399E+04   -0.62219E-05   -0.31691E-06  3328   0.628E-03    0.189E-02
DAV:  50    -0.132370888827E+04   -0.14281E-04   -0.22722E-06  3488   0.545E-03    0.184E-02
DAV:  51    -0.132370890223E+04   -0.13953E-04   -0.19993E-06  3496   0.545E-03    0.104E-02
DAV:  52    -0.132370890537E+04   -0.31474E-05   -0.10126E-06  3200   0.380E-03
   3 F= -.14210777E+04 E0= -.14203472E+04  d E =-.989368E+00
 curvature:  -2.47 expect dE=-0.236E+00 dE for cont linesearch -0.339E-04
 trial: gam= 0.22632 g(F)=  0.959E-01 g(S)=  0.000E+00 ort =-0.244E-02 (trialstep = 0.155E+01)
 search vector abs. value=  0.117E+00
 bond charge predicted
       N       E                     dE             d eps       ncg     rms          rms(c)
DAV:   1    -0.132371795671E+04   -0.90545E-02   -0.57084E+01  6076   0.775E+00    0.164E+00
DAV:   2    -0.132662472828E+04   -0.29068E+01   -0.12427E+00  6616   0.568E+00    0.334E+01
DAV:   3    -0.132394825415E+04    0.26765E+01   -0.10925E+00  6616   0.590E+00    0.787E+00
DAV:   4    -0.132435015314E+04   -0.40190E+00   -0.18252E-01  6744   0.280E+00    0.187E+01
DAV:   5    -0.132387594598E+04    0.47421E+00   -0.31742E-01  6656   0.258E+00    0.631E+00
DAV:   6    -0.132402094394E+04   -0.14500E+00   -0.15007E-01  6744   0.218E+00    0.988E+00
DAV:   7    -0.132384323627E+04    0.17771E+00   -0.12436E-01  6664   0.194E+00    0.464E+00
DAV:   8    -0.132381167579E+04    0.31560E-01   -0.41780E-02  6616   0.107E+00    0.330E+00
DAV:   9    -0.132381196356E+04   -0.28777E-03   -0.28128E-02  6848   0.830E-01    0.323E+00
DAV:  10    -0.132382497978E+04   -0.13016E-01   -0.30668E-02  6744   0.962E-01    0.373E+00
DAV:  11    -0.132380114672E+04    0.23833E-01   -0.21877E-02  6664   0.872E-01    0.251E+00
DAV:  12    -0.132379402805E+04    0.71187E-02   -0.12578E-02  6696   0.519E-01    0.165E+00
DAV:  13    -0.132379473053E+04   -0.70248E-03   -0.83444E-03  6688   0.449E-01    0.162E+00
DAV:  14    -0.132380478720E+04   -0.10057E-01   -0.12599E-02  6712   0.501E-01    0.271E+00
DAV:  15    -0.132379107781E+04    0.13709E-01   -0.10100E-02  6696   0.463E-01    0.103E+00
DAV:  16    -0.132378964075E+04    0.14371E-02   -0.19530E-03  6616   0.249E-01    0.720E-01
DAV:  17    -0.132379067807E+04   -0.10373E-02   -0.19072E-03  6952   0.238E-01    0.853E-01
DAV:  18    -0.132379004087E+04    0.63721E-03   -0.18991E-03  6688   0.255E-01    0.724E-01
DAV:  19    -0.132378878853E+04    0.12523E-02   -0.82306E-04  6744   0.176E-01    0.383E-01
DAV:  20    -0.132378880875E+04   -0.20213E-04   -0.29501E-04  6912   0.850E-02    0.361E-01
DAV:  21    -0.132378889230E+04   -0.83549E-04   -0.30677E-04  6816   0.979E-02    0.346E-01
DAV:  22    -0.132378864073E+04    0.25157E-03   -0.21875E-04  6776   0.834E-02    0.192E-01
DAV:  23    -0.132378861569E+04    0.25042E-04   -0.62671E-05  6656   0.412E-02    0.163E-01
DAV:  24    -0.132378864471E+04   -0.29022E-04   -0.56734E-05  6576   0.424E-02    0.172E-01
DAV:  25    -0.132378858460E+04    0.60105E-04   -0.46065E-05  6480   0.398E-02    0.798E-02
DAV:  26    -0.132378858035E+04    0.42538E-05   -0.17024E-05  4216   0.221E-02
   4 F= -.14212118E+04 E0= -.14204827E+04  d E =-.134117E+00
 trial-energy change:   -0.134117  1 .order   -0.133502   -0.148060   -0.118944
 step:   5.8499(harm=  7.8994)  dis= 0.08968  next Energy= -1421.389283 (dE=-0.312E+00)
 bond charge predicted
       N       E                     dE             d eps       ncg     rms          rms(c)
DAV:   1    -0.132309642681E+04    0.69216E+00   -0.43890E+02  6076   0.216E+01    0.503E+00
DAV:   2    -0.134310786476E+04   -0.20011E+02   -0.90388E+00  6680   0.167E+01    0.699E+01
DAV:   3    -0.132552306314E+04    0.17585E+02   -0.64551E+00  6632   0.172E+01    0.243E+01
DAV:   4    -0.132847784641E+04   -0.29548E+01   -0.22981E+00  6760   0.858E+00    0.486E+01
DAV:   5    -0.132468241460E+04    0.37954E+01   -0.22261E+00  6576   0.779E+00    0.199E+01
DAV:   6    -0.132489723002E+04   -0.21482E+00   -0.12325E+00  6624   0.579E+00    0.195E+01
DAV:   7    -0.132434836033E+04    0.54887E+00   -0.75724E-01  6576   0.463E+00    0.138E+01
DAV:   8    -0.132413560120E+04    0.21276E+00   -0.34377E-01  6680   0.308E+00    0.108E+01
DAV:   9    -0.132417021774E+04   -0.34617E-01   -0.26097E-01  6680   0.267E+00    0.115E+01
DAV:  10    -0.132404942788E+04    0.12079E+00   -0.22091E-01  6648   0.265E+00    0.888E+00
DAV:  11    -0.132390250993E+04    0.14692E+00   -0.13343E-01  6640   0.200E+00    0.447E+00
DAV:  12    -0.132390442837E+04   -0.19184E-02   -0.78584E-02  6640   0.129E+00    0.479E+00
DAV:  13    -0.132394549394E+04   -0.41066E-01   -0.86763E-02  6712   0.138E+00    0.597E+00
DAV:  14    -0.132395415288E+04   -0.86589E-02   -0.89624E-02  6688   0.152E+00    0.629E+00
DAV:  15    -0.132390881232E+04    0.45341E-01   -0.66856E-02  6648   0.127E+00    0.483E+00
DAV:  16    -0.132389131833E+04    0.17494E-01   -0.33985E-02  6664   0.972E-01    0.374E+00
DAV:  17    -0.132389687693E+04   -0.55586E-02   -0.25349E-02  6696   0.958E-01    0.363E+00
DAV:  18    -0.132387271528E+04    0.24162E-01   -0.20576E-02  6728   0.898E-01    0.213E+00
DAV:  19    -0.132386147067E+04    0.11245E-01   -0.98505E-03  6680   0.582E-01    0.993E-01
DAV:  20    -0.132386578390E+04   -0.43132E-02   -0.61840E-03  6728   0.441E-01    0.140E+00
DAV:  21    -0.132386266272E+04    0.31212E-02   -0.53096E-03  6752   0.420E-01    0.970E-01
DAV:  22    -0.132386061679E+04    0.20459E-02   -0.23619E-03  6720   0.268E-01    0.548E-01
DAV:  23    -0.132386178520E+04   -0.11684E-02   -0.14576E-03  6752   0.207E-01    0.811E-01
DAV:  24    -0.132386107144E+04    0.71376E-03   -0.13003E-03  6736   0.202E-01    0.685E-01
DAV:  25    -0.132386049583E+04    0.57561E-03   -0.59158E-04  6704   0.140E-01    0.517E-01
DAV:  26    -0.132386065237E+04   -0.15654E-03   -0.46623E-04  6824   0.128E-01    0.521E-01
DAV:  27    -0.132386020061E+04    0.45176E-03   -0.50448E-04  6808   0.132E-01    0.353E-01
DAV:  28    -0.132385997046E+04    0.23016E-03   -0.21883E-04  6768   0.793E-02    0.222E-01
DAV:  29    -0.132385995746E+04    0.12996E-04   -0.10160E-04  6744   0.444E-02    0.193E-01
DAV:  30    -0.132385993108E+04    0.26385E-04   -0.69581E-05  6712   0.427E-02    0.131E-01
DAV:  31    -0.132385991196E+04    0.19112E-04   -0.43896E-05  6304   0.329E-02    0.126E-01
DAV:  32    -0.132385992595E+04   -0.13987E-04   -0.30115E-05  5728   0.273E-02    0.129E-01
DAV:  33    -0.132385989942E+04    0.26531E-04   -0.26396E-05  5512   0.268E-02    0.630E-02
DAV:  34    -0.132385989839E+04    0.10331E-05   -0.10270E-05  3264   0.177E-02
   5 F= -.14214383E+04 E0= -.14207131E+04  d E =-.360670E+00
 curvature:  -4.34 expect dE=-0.140E+00 dE for cont linesearch -0.300E-01
 ZBRENT: increasing intervall
 opt :  14.4429  next Energy= -1421.269097 (dE=-0.191E+00)
 bond charge predicted
       N       E                     dE             d eps       ncg     rms          rms(c)
DAV:   1    -0.131917450394E+04    0.46854E+01   -0.18040E+03  6084   0.446E+01    0.114E+01
DAV:   2    -0.138940459990E+04   -0.70230E+02   -0.39587E+01  6984   0.368E+01    0.107E+02
DAV:   3    -0.133303117130E+04    0.56373E+02   -0.30600E+01  6608   0.359E+01    0.549E+01
DAV:   4    -0.135273643376E+04   -0.19705E+02   -0.11078E+01  6736   0.217E+01    0.905E+01
DAV:   5    -0.132539228118E+04    0.27344E+02   -0.95420E+00  6536   0.195E+01    0.309E+01
DAV:   6    -0.132972181297E+04   -0.43295E+01   -0.65284E+00  6736   0.143E+01    0.440E+01
DAV:   7    -0.133006182886E+04   -0.34002E+00   -0.52213E+00  6664   0.138E+01    0.471E+01
DAV:   8    -0.132652642845E+04    0.35354E+01   -0.32577E+00  6632   0.103E+01    0.345E+01
DAV:   9    -0.132431069799E+04    0.22157E+01   -0.12456E+00  6600   0.638E+00    0.190E+01
DAV:  10    -0.132401558669E+04    0.29511E+00   -0.73779E-01  6600   0.434E+00    0.163E+01
DAV:  11    -0.132385724627E+04    0.15834E+00   -0.58798E-01  6792   0.424E+00    0.131E+01
DAV:  12    -0.132362854969E+04    0.22870E+00   -0.45053E-01  6712   0.365E+00    0.975E+00
DAV:  13    -0.132373805339E+04   -0.10950E+00   -0.30884E-01  6648   0.289E+00    0.126E+01
DAV:  14    -0.132368677603E+04    0.51277E-01   -0.37596E-01  6648   0.288E+00    0.108E+01
DAV:  15    -0.132354253524E+04    0.14424E+00   -0.23263E-01  6648   0.260E+00    0.712E+00
DAV:  16    -0.132356532289E+04   -0.22788E-01   -0.16038E-01  6752   0.227E+00    0.752E+00
DAV:  17    -0.132357463595E+04   -0.93131E-02   -0.15417E-01  6664   0.234E+00    0.766E+00
DAV:  18    -0.132345539136E+04    0.11924E+00   -0.98766E-02  6728   0.188E+00    0.483E+00
DAV:  19    -0.132344778509E+04    0.76063E-02   -0.46052E-02  6728   0.111E+00    0.464E+00
DAV:  20    -0.132346146698E+04   -0.13682E-01   -0.56073E-02  6680   0.129E+00    0.453E+00
DAV:  21    -0.132344517281E+04    0.16294E-01   -0.47685E-02  6680   0.129E+00    0.372E+00
DAV:  22    -0.132342334186E+04    0.21831E-01   -0.26419E-02  6672   0.934E-01    0.283E+00
DAV:  23    -0.132342904379E+04   -0.57019E-02   -0.15134E-02  6840   0.658E-01    0.313E+00
DAV:  24    -0.132342455738E+04    0.44864E-02   -0.13660E-02  6696   0.678E-01    0.258E+00
DAV:  25    -0.132341014620E+04    0.14411E-01   -0.10089E-02  6696   0.601E-01    0.115E+00
DAV:  26    -0.132340986050E+04    0.28570E-03   -0.34749E-03  7248   0.325E-01    0.104E+00
DAV:  27    -0.132340962298E+04    0.23752E-03   -0.28533E-03  7008   0.324E-01    0.934E-01
DAV:  28    -0.132340687925E+04    0.27437E-02   -0.21186E-03  6840   0.264E-01    0.332E-01
DAV:  29    -0.132340729649E+04   -0.41724E-03   -0.94668E-04  7032   0.161E-01    0.451E-01
DAV:  30    -0.132340802588E+04   -0.72940E-03   -0.10299E-03  6912   0.183E-01    0.769E-01
DAV:  31    -0.132340759125E+04    0.43464E-03   -0.67125E-04  6888   0.141E-01    0.751E-01
DAV:  32    -0.132340738985E+04    0.20139E-03   -0.31182E-04  6840   0.824E-02    0.637E-01
DAV:  33    -0.132340682420E+04    0.56565E-03   -0.28342E-04  6920   0.896E-02    0.270E-01
DAV:  34    -0.132340675211E+04    0.72083E-04   -0.17083E-04  6856   0.644E-02    0.210E-01
DAV:  35    -0.132340676935E+04   -0.17238E-04   -0.12684E-04  6856   0.551E-02    0.207E-01
DAV:  36    -0.132340668497E+04    0.84378E-04   -0.97546E-05  6824   0.478E-02    0.123E-01
DAV:  37    -0.132340669189E+04   -0.69197E-05   -0.38678E-05  6200   0.281E-02    0.120E-01
DAV:  38    -0.132340669849E+04   -0.65919E-05   -0.26174E-05  5336   0.274E-02    0.135E-01
DAV:  39    -0.132340669630E+04    0.21860E-05   -0.13190E-05  3752   0.191E-02
   6 F= -.14213097E+04 E0= -.14205914E+04  d E =-.231985E+00
 curvature:  24.49 expect dE= 0.558E+01 dE for cont linesearch  0.734E+00
 ZBRENT: bracketing found
 ZBRENT: interpolating
 opt :   8.6374  next Energy= -1421.477974 (dE=-0.400E+00)
 bond charge predicted
       N       E                     dE             d eps       ncg     rms          rms(c)
DAV:   1    -0.132222254187E+04    0.11842E+01   -0.80338E+02  6060   0.296E+01    0.552E+00
DAV:   2    -0.135398948105E+04   -0.31767E+02   -0.15906E+01  6768   0.191E+01    0.104E+02
DAV:   3    -0.134201546330E+04    0.11974E+02   -0.14550E+01  6864   0.199E+01    0.863E+01
DAV:   4    -0.132488140833E+04    0.17134E+02   -0.41641E+00  6584   0.132E+01    0.214E+01
DAV:   5    -0.132513069131E+04   -0.24928E+00   -0.28331E+00  6720   0.831E+00    0.230E+01
DAV:   6    -0.132583517949E+04   -0.70449E+00   -0.20912E+00  6744   0.798E+00    0.268E+01
DAV:   7    -0.132509332556E+04    0.74185E+00   -0.15578E+00  6696   0.714E+00    0.212E+01
DAV:   8    -0.132454785907E+04    0.54547E+00   -0.89569E-01  6744   0.549E+00    0.175E+01
DAV:   9    -0.132422056257E+04    0.32730E+00   -0.52628E-01  6776   0.393E+00    0.140E+01
DAV:  10    -0.132418842967E+04    0.32133E-01   -0.37883E-01  6696   0.312E+00    0.127E+01
DAV:  11    -0.132406084846E+04    0.12758E+00   -0.32828E-01  6736   0.300E+00    0.101E+01
DAV:  12    -0.132386738829E+04    0.19346E+00   -0.18232E-01  6672   0.225E+00    0.522E+00
DAV:  13    -0.132388165851E+04   -0.14270E-01   -0.10183E-01  6768   0.178E+00    0.616E+00
DAV:  14    -0.132406106315E+04   -0.17940E+00   -0.11840E-01  6704   0.206E+00    0.110E+01
DAV:  15    -0.132386254783E+04    0.19852E+00   -0.94605E-02  6744   0.179E+00    0.555E+00
DAV:  16    -0.132383427408E+04    0.28274E-01   -0.35164E-02  6720   0.966E-01    0.451E+00
DAV:  17    -0.132383758845E+04   -0.33144E-02   -0.24931E-02  6664   0.841E-01    0.495E+00
DAV:  18    -0.132384534855E+04   -0.77601E-02   -0.33636E-02  6856   0.120E+00    0.431E+00
DAV:  19    -0.132383173374E+04    0.13615E-01   -0.24264E-02  6736   0.990E-01    0.408E+00
DAV:  20    -0.132384752617E+04   -0.15792E-01   -0.27987E-02  7360   0.944E-01    0.469E+00
DAV:  21    -0.132380785330E+04    0.39673E-01   -0.18728E-02  7000   0.824E-01    0.228E+00
DAV:  22    -0.132380059776E+04    0.72555E-02   -0.51502E-03  6696   0.393E-01    0.160E+00
DAV:  23    -0.132380305813E+04   -0.24604E-02   -0.44450E-03  7056   0.374E-01    0.169E+00
DAV:  24    -0.132379959723E+04    0.34609E-02   -0.39532E-03  6760   0.384E-01    0.119E+00
DAV:  25    -0.132379668789E+04    0.29093E-02   -0.19223E-03  6664   0.259E-01    0.587E-01
DAV:  26    -0.132379691111E+04   -0.22322E-03   -0.11711E-03  6856   0.185E-01    0.624E-01
DAV:  27    -0.132379676058E+04    0.15053E-03   -0.10342E-03  6752   0.167E-01    0.567E-01
DAV:  28    -0.132379617844E+04    0.58213E-03   -0.62294E-04  6664   0.137E-01    0.378E-01
DAV:  29    -0.132379623582E+04   -0.57372E-04   -0.28586E-04  7416   0.839E-02    0.361E-01
DAV:  30    -0.132379616570E+04    0.70113E-04   -0.23540E-04  7072   0.790E-02    0.349E-01
DAV:  31    -0.132379607168E+04    0.94021E-04   -0.11877E-04  6768   0.522E-02    0.263E-01
DAV:  32    -0.132379609636E+04   -0.24681E-04   -0.98944E-05  7024   0.519E-02    0.240E-01
DAV:  33    -0.132379602017E+04    0.76199E-04   -0.10123E-04  6928   0.587E-02    0.154E-01
DAV:  34    -0.132379600231E+04    0.17858E-04   -0.50900E-05  6680   0.368E-02    0.145E-01
DAV:  35    -0.132379600171E+04    0.59512E-06   -0.31654E-05  5968   0.270E-02
   7 F= -.14214784E+04 E0= -.14207554E+04  d E =-.400738E+00
 curvature:  -1.32 expect dE=-0.736E-01 dE for cont linesearch -0.227E-05
 trial: gam= 0.65722 g(F)=  0.557E-01 g(S)=  0.000E+00 ort = 0.448E-03 (trialstep = 0.297E+01)
 search vector abs. value=  0.107E+00
 bond charge predicted
       N       E                     dE             d eps       ncg     rms          rms(c)
DAV:   1    -0.132361138174E+04    0.18462E+00   -0.19759E+02  6068   0.148E+01    0.348E+00
DAV:   2    -0.134142484604E+04   -0.17813E+02   -0.48094E+00  6656   0.150E+01    0.679E+01
DAV:   3    -0.132467666866E+04    0.16748E+02   -0.31587E+00  6632   0.143E+01    0.163E+01
DAV:   4    -0.132381028571E+04    0.86638E+00   -0.93568E-01  7192   0.436E+00    0.463E+00
DAV:   5    -0.132874001558E+04   -0.49297E+01   -0.48528E-01  6896   0.646E+00    0.472E+01
DAV:   6    -0.132461828683E+04    0.41217E+01   -0.15051E+00  6704   0.652E+00    0.182E+01
DAV:   7    -0.132400973432E+04    0.60855E+00   -0.39775E-01  6624   0.325E+00    0.927E+00
DAV:   8    -0.132397538385E+04    0.34350E-01   -0.20493E-01  6648   0.234E+00    0.890E+00
DAV:   9    -0.132404135879E+04   -0.65975E-01   -0.21001E-01  6808   0.237E+00    0.980E+00
DAV:  10    -0.132396448990E+04    0.76869E-01   -0.17671E-01  6728   0.241E+00    0.766E+00
DAV:  11    -0.132383620758E+04    0.12828E+00   -0.11093E-01  6696   0.183E+00    0.415E+00
DAV:  12    -0.132383037628E+04    0.58313E-02   -0.51863E-02  6776   0.969E-01    0.397E+00
DAV:  13    -0.132382772865E+04    0.26476E-02   -0.34442E-02  6760   0.895E-01    0.354E+00
DAV:  14    -0.132382277440E+04    0.49542E-02   -0.30003E-02  6720   0.820E-01    0.347E+00
DAV:  15    -0.132380407684E+04    0.18698E-01   -0.18335E-02  6656   0.636E-01    0.189E+00
DAV:  16    -0.132380219651E+04    0.18803E-02   -0.56217E-03  6776   0.404E-01    0.155E+00
DAV:  17    -0.132380661516E+04   -0.44186E-02   -0.65194E-03  6784   0.480E-01    0.185E+00
DAV:  18    -0.132379936890E+04    0.72463E-02   -0.57968E-03  6784   0.476E-01    0.101E+00
DAV:  19    -0.132379812386E+04    0.12450E-02   -0.23407E-03  6776   0.299E-01    0.787E-01
DAV:  20    -0.132380008005E+04   -0.19562E-02   -0.25230E-03  6824   0.303E-01    0.105E+00
DAV:  21    -0.132379799038E+04    0.20897E-02   -0.22197E-03  6736   0.289E-01    0.636E-01
DAV:  22    -0.132379718265E+04    0.80773E-03   -0.93163E-04  6752   0.177E-01    0.383E-01
DAV:  23    -0.132379755077E+04   -0.36812E-03   -0.70180E-04  6856   0.156E-01    0.482E-01
DAV:  24    -0.132379713807E+04    0.41269E-03   -0.55566E-04  6776   0.136E-01    0.316E-01
DAV:  25    -0.132379693335E+04    0.20472E-03   -0.22549E-04  6728   0.894E-02    0.205E-01
DAV:  26    -0.132379696921E+04   -0.35862E-04   -0.11157E-04  6936   0.575E-02    0.213E-01
DAV:  27    -0.132379696410E+04    0.51167E-05   -0.12757E-04  6776   0.630E-02    0.190E-01
DAV:  28    -0.132379687626E+04    0.87834E-04   -0.83226E-05  6784   0.534E-02    0.104E-01
DAV:  29    -0.132379687067E+04    0.55884E-05   -0.33912E-05  6376   0.295E-02    0.885E-02
DAV:  30    -0.132379687861E+04   -0.79332E-05   -0.32323E-05  6088   0.300E-02    0.843E-02
DAV:  31    -0.132379685941E+04    0.19197E-04   -0.22009E-05  5000   0.257E-02    0.411E-02
DAV:  32    -0.132379686099E+04   -0.15760E-05   -0.58761E-06  3224   0.113E-02
   8 F= -.14216218E+04 E0= -.14209037E+04  d E =-.143364E+00
 trial-energy change:   -0.143364  1 .order   -0.142898   -0.166182   -0.119613
 step:   9.3816(harm= 10.5991)  dis= 0.03594  next Energy= -1421.755561 (dE=-0.277E+00)
 bond charge predicted
       N       E                     dE             d eps       ncg     rms          rms(c)
DAV:   1    -0.132237281504E+04    0.14240E+01   -0.91987E+02  6068   0.321E+01    0.834E+00
DAV:   2    -0.138818985193E+04   -0.65817E+02   -0.20506E+01  6656   0.338E+01    0.106E+02
DAV:   3    -0.132887112324E+04    0.59319E+02   -0.12662E+01  6848   0.299E+01    0.385E+01
DAV:   4    -0.132366055297E+04    0.52106E+01   -0.43423E+00  6888   0.110E+01    0.121E+01
DAV:   5    -0.134051443154E+04   -0.16854E+02   -0.26922E+00  6928   0.136E+01    0.718E+01
DAV:   6    -0.132689667429E+04    0.13618E+02   -0.43721E+00  6736   0.135E+01    0.374E+01
DAV:   7    -0.132483134573E+04    0.20653E+01   -0.18545E+00  6672   0.681E+00    0.225E+01
DAV:   8    -0.132454492156E+04    0.28642E+00   -0.93941E-01  6768   0.456E+00    0.201E+01
DAV:   9    -0.132437275707E+04    0.17216E+00   -0.80968E-01  6712   0.455E+00    0.167E+01
DAV:  10    -0.132421880175E+04    0.15396E+00   -0.64607E-01  6744   0.438E+00    0.153E+01
DAV:  11    -0.132397204463E+04    0.24676E+00   -0.40967E-01  6744   0.330E+00    0.116E+01
DAV:  12    -0.132389966781E+04    0.72377E-01   -0.20999E-01  6760   0.231E+00    0.103E+01
DAV:  13    -0.132379324648E+04    0.10642E+00   -0.16788E-01  6712   0.216E+00    0.768E+00
DAV:  14    -0.132374495238E+04    0.48294E-01   -0.10559E-01  6760   0.174E+00    0.691E+00
DAV:  15    -0.132373109415E+04    0.13858E-01   -0.81724E-02  6712   0.139E+00    0.623E+00
DAV:  16    -0.132373583193E+04   -0.47378E-02   -0.61084E-02  6792   0.136E+00    0.615E+00
DAV:  17    -0.132373580230E+04    0.29635E-04   -0.78404E-02  6712   0.140E+00    0.619E+00
DAV:  18    -0.132365707608E+04    0.78726E-01   -0.46659E-02  6712   0.120E+00    0.255E+00
DAV:  19    -0.132364754754E+04    0.95285E-02   -0.15731E-02  6736   0.695E-01    0.193E+00
DAV:  20    -0.132365977445E+04   -0.12227E-01   -0.17706E-02  6824   0.762E-01    0.262E+00
DAV:  21    -0.132364886737E+04    0.10907E-01   -0.15362E-02  6776   0.749E-01    0.181E+00
DAV:  22    -0.132364610683E+04    0.27605E-02   -0.76500E-03  6696   0.460E-01    0.150E+00
DAV:  23    -0.132365277753E+04   -0.66707E-02   -0.89481E-03  6728   0.556E-01    0.192E+00
DAV:  24    -0.132364263003E+04    0.10148E-01   -0.70351E-03  6768   0.515E-01    0.911E-01
DAV:  25    -0.132364190311E+04    0.72692E-03   -0.26440E-03  6904   0.297E-01    0.749E-01
DAV:  26    -0.132364316943E+04   -0.12663E-02   -0.23414E-03  6872   0.276E-01    0.917E-01
DAV:  27    -0.132364119698E+04    0.19724E-02   -0.17537E-03  6840   0.246E-01    0.544E-01
DAV:  28    -0.132364085505E+04    0.34194E-03   -0.58181E-04  6824   0.130E-01    0.458E-01
DAV:  29    -0.132364086484E+04   -0.97898E-05   -0.32721E-04  6848   0.927E-02    0.420E-01
DAV:  30    -0.132364061071E+04    0.25413E-03   -0.29200E-04  6832   0.948E-02    0.298E-01
DAV:  31    -0.132364066968E+04   -0.58973E-04   -0.22931E-04  6896   0.820E-02    0.328E-01
DAV:  32    -0.132364063763E+04    0.32044E-04   -0.25460E-04  6888   0.906E-02    0.284E-01
DAV:  33    -0.132364043256E+04    0.20507E-03   -0.15587E-04  6832   0.707E-02    0.101E-01
DAV:  34    -0.132364045288E+04   -0.20316E-04   -0.70909E-05  7128   0.380E-02    0.100E-01
DAV:  35    -0.132364045923E+04   -0.63551E-05   -0.47255E-05  6312   0.344E-02    0.122E-01
DAV:  36    -0.132364045491E+04    0.43209E-05   -0.21034E-05  4672   0.184E-02
   9 F= -.14217768E+04 E0= -.14210695E+04  d E =-.298364E+00
 curvature:  -9.86 expect dE=-0.670E+00 dE for cont linesearch -0.366E-02
 trial: gam= 1.20998 g(F)=  0.680E-01 g(S)=  0.000E+00 ort = 0.630E-02 (trialstep = 0.190E+01)
 search vector abs. value=  0.240E+00
 bond charge predicted
       N       E                     dE             d eps       ncg     rms          rms(c)
DAV:   1    -0.132345196201E+04    0.18850E+00   -0.18465E+02  6063   0.143E+01    0.322E+00
DAV:   2    -0.134024209909E+04   -0.16790E+02   -0.44083E+00  6664   0.145E+01    0.663E+01
DAV:   3    -0.132446138188E+04    0.15781E+02   -0.24041E+00  6616   0.140E+01    0.176E+01
DAV:   4    -0.132565070964E+04   -0.11893E+01   -0.88949E-01  7768   0.514E+00    0.342E+01
DAV:   5    -0.132368938016E+04    0.19613E+01   -0.96154E-01  6832   0.437E+00    0.463E+00
DAV:   6    -0.132418871726E+04   -0.49934E+00   -0.35420E-01  6856   0.347E+00    0.148E+01
DAV:   7    -0.132386215660E+04    0.32656E+00   -0.37766E-01  6712   0.339E+00    0.102E+01
DAV:   8    -0.132377318251E+04    0.88974E-01   -0.17679E-01  6704   0.211E+00    0.807E+00
DAV:   9    -0.132371362736E+04    0.59555E-01   -0.11059E-01  6712   0.183E+00    0.640E+00
DAV:  10    -0.132370849368E+04    0.51337E-02   -0.97471E-02  6760   0.157E+00    0.633E+00
DAV:  11    -0.132363245260E+04    0.76041E-01   -0.73690E-02  6752   0.137E+00    0.274E+00
DAV:  12    -0.132362032940E+04    0.12123E-01   -0.23048E-02  6760   0.770E-01    0.214E+00
DAV:  13    -0.132362961732E+04   -0.92879E-02   -0.17582E-02  6752   0.625E-01    0.298E+00
DAV:  14    -0.132363337831E+04   -0.37610E-02   -0.22638E-02  6696   0.684E-01    0.321E+00
DAV:  15    -0.132362085099E+04    0.12527E-01   -0.13271E-02  6712   0.589E-01    0.236E+00
DAV:  16    -0.132361948258E+04    0.13684E-02   -0.56957E-03  6736   0.384E-01    0.214E+00
DAV:  17    -0.132362069743E+04   -0.12149E-02   -0.64085E-03  6760   0.455E-01    0.200E+00
DAV:  18    -0.132361528782E+04    0.54096E-02   -0.63213E-03  6776   0.477E-01    0.124E+00
DAV:  19    -0.132361142825E+04    0.38596E-02   -0.28198E-03  6728   0.327E-01    0.689E-01
DAV:  20    -0.132361203068E+04   -0.60243E-03   -0.13217E-03  7152   0.201E-01    0.786E-01
DAV:  21    -0.132361148477E+04    0.54592E-03   -0.11130E-03  6896   0.201E-01    0.580E-01
DAV:  22    -0.132361077784E+04    0.70693E-03   -0.66613E-04  6840   0.158E-01    0.364E-01
DAV:  23    -0.132361089175E+04   -0.11390E-03   -0.37547E-04  7064   0.111E-01    0.405E-01
DAV:  24    -0.132361093501E+04   -0.43265E-04   -0.37554E-04  6976   0.109E-01    0.418E-01
DAV:  25    -0.132361066224E+04    0.27277E-03   -0.23987E-04  6856   0.886E-02    0.302E-01
DAV:  26    -0.132361065035E+04    0.11886E-04   -0.10208E-04  7224   0.527E-02    0.268E-01
DAV:  27    -0.132361060516E+04    0.45199E-04   -0.11953E-04  7056   0.638E-02    0.204E-01
DAV:  28    -0.132361054026E+04    0.64897E-04   -0.65396E-05  6880   0.473E-02    0.162E-01
DAV:  29    -0.132361053573E+04    0.45258E-05   -0.30844E-05  5864   0.257E-02
  10 F= -.14218891E+04 E0= -.14211870E+04  d E =-.112300E+00
 trial-energy change:   -0.112300  1 .order   -0.112419   -0.143279   -0.081560
 step:   4.4009(harm=  4.4009)  dis= 0.03530  next Energy= -1421.943080 (dE=-0.166E+00)
 bond charge predicted
       N       E                     dE             d eps       ncg     rms          rms(c)
DAV:   1    -0.132316391466E+04    0.44663E+00   -0.32231E+02  6060   0.189E+01    0.430E+00
DAV:   2    -0.134982421160E+04   -0.26660E+02   -0.72177E+00  6640   0.192E+01    0.774E+01
DAV:   3    -0.132513132119E+04    0.24693E+02   -0.48014E+00  6632   0.183E+01    0.245E+01
DAV:   4    -0.132710286999E+04   -0.19715E+01   -0.18354E+00  7416   0.697E+00    0.442E+01
DAV:   5    -0.132359973056E+04    0.35031E+01   -0.15234E+00  6840   0.581E+00    0.577E+00
DAV:   6    -0.132457960894E+04   -0.97988E+00   -0.69989E-01  6840   0.482E+00    0.201E+01
DAV:   7    -0.132399651044E+04    0.58310E+00   -0.73805E-01  6728   0.473E+00    0.147E+01
DAV:   8    -0.132373916945E+04    0.25734E+00   -0.30901E-01  6728   0.284E+00    0.102E+01
DAV:   9    -0.132366113573E+04    0.78034E-01   -0.18598E-01  6664   0.234E+00    0.842E+00
DAV:  10    -0.132364327098E+04    0.17865E-01   -0.17395E-01  6712   0.213E+00    0.819E+00
DAV:  11    -0.132352487021E+04    0.11840E+00   -0.12178E-01  6704   0.177E+00    0.408E+00
DAV:  12    -0.132350803797E+04    0.16832E-01   -0.49023E-02  6728   0.108E+00    0.361E+00
DAV:  13    -0.132351227833E+04   -0.42404E-02   -0.34703E-02  6712   0.853E-01    0.392E+00
DAV:  14    -0.132350993004E+04    0.23483E-02   -0.30067E-02  6720   0.917E-01    0.350E+00
DAV:  15    -0.132349069252E+04    0.19238E-01   -0.17854E-02  6728   0.779E-01    0.252E+00
DAV:  16    -0.132349065767E+04    0.34850E-04   -0.78915E-03  6872   0.494E-01    0.238E+00
DAV:  17    -0.132349677822E+04   -0.61205E-02   -0.10757E-02  6768   0.586E-01    0.270E+00
DAV:  18    -0.132348610483E+04    0.10673E-01   -0.12936E-02  6760   0.568E-01    0.157E+00
DAV:  19    -0.132348127915E+04    0.48257E-02   -0.46093E-03  6728   0.395E-01    0.900E-01
DAV:  20    -0.132348427618E+04   -0.29970E-02   -0.35505E-03  7024   0.348E-01    0.130E+00
DAV:  21    -0.132348065050E+04    0.36257E-02   -0.28640E-03  6976   0.325E-01    0.683E-01
DAV:  22    -0.132347999919E+04    0.65131E-03   -0.96381E-04  6784   0.188E-01    0.538E-01
DAV:  23    -0.132348046145E+04   -0.46226E-03   -0.88645E-04  6824   0.175E-01    0.633E-01
DAV:  24    -0.132347984082E+04    0.62062E-03   -0.80532E-04  6816   0.164E-01    0.462E-01
DAV:  25    -0.132347958570E+04    0.25512E-03   -0.35816E-04  6728   0.105E-01    0.357E-01
DAV:  26    -0.132347966066E+04   -0.74962E-04   -0.23455E-04  6792   0.848E-02    0.351E-01
DAV:  27    -0.132347949010E+04    0.17056E-03   -0.23813E-04  6792   0.885E-02    0.247E-01
DAV:  28    -0.132347941803E+04    0.72067E-04   -0.10509E-04  6760   0.559E-02    0.192E-01
DAV:  29    -0.132347944734E+04   -0.29310E-04   -0.73480E-05  6888   0.444E-02    0.205E-01
DAV:  30    -0.132347942001E+04    0.27337E-04   -0.66265E-05  6744   0.425E-02    0.178E-01
DAV:  31    -0.132347940337E+04    0.16635E-04   -0.27906E-05  5888   0.253E-02    0.153E-01
DAV:  32    -0.132347938339E+04    0.19983E-04   -0.17725E-05  4112   0.227E-02    0.853E-02
DAV:  33    -0.132347936984E+04    0.13543E-04   -0.11411E-05  3760   0.194E-02    0.287E-02
DAV:  34    -0.132347937117E+04   -0.13215E-05   -0.53027E-06  3296   0.104E-02
  11 F= -.14219473E+04 E0= -.14212520E+04  d E =-.170489E+00
 curvature:  -6.97 expect dE=-0.216E+00 dE for cont linesearch -0.455E-03
 trial: gam= 0.55402 g(F)=  0.310E-01 g(S)=  0.000E+00 ort = 0.395E-02 (trialstep = 0.240E+01)
 search vector abs. value=  0.109E+00
 bond charge predicted
       N       E                     dE             d eps       ncg     rms          rms(c)
DAV:   1    -0.132331552181E+04    0.16385E+00   -0.13517E+02  6060   0.122E+01    0.265E+00
DAV:   2    -0.133654438726E+04   -0.13229E+02   -0.34218E+00  6744   0.125E+01    0.619E+01
DAV:   3    -0.132393516869E+04    0.12609E+02   -0.18820E+00  6688   0.120E+01    0.133E+01
DAV:   4    -0.132466693290E+04   -0.73176E+00   -0.72675E-01  8120   0.413E+00    0.271E+01
DAV:   5    -0.132348437234E+04    0.11826E+01   -0.55589E-01  7040   0.354E+00    0.455E+00
DAV:   6    -0.132414153163E+04   -0.65716E+00   -0.31538E-01  6912   0.326E+00    0.171E+01
DAV:   7    -0.132361365515E+04    0.52788E+00   -0.34372E-01  6728   0.327E+00    0.840E+00
DAV:   8    -0.132353621170E+04    0.77443E-01   -0.10870E-01  6672   0.168E+00    0.693E+00
DAV:   9    -0.132349838101E+04    0.37831E-01   -0.64034E-02  6688   0.120E+00    0.550E+00
DAV:  10    -0.132348347254E+04    0.14908E-01   -0.51880E-02  6688   0.120E+00    0.468E+00
DAV:  11    -0.132344176827E+04    0.41704E-01   -0.38460E-02  6664   0.106E+00    0.271E+00
DAV:  12    -0.132343204827E+04    0.97200E-02   -0.18790E-02  6808   0.590E-01    0.183E+00
DAV:  13    -0.132343241564E+04   -0.36737E-03   -0.10042E-02  6664   0.478E-01    0.186E+00
DAV:  14    -0.132344166458E+04   -0.92489E-02   -0.11471E-02  6712   0.525E-01    0.286E+00
DAV:  15    -0.132342948963E+04    0.12175E-01   -0.10049E-02  6720   0.503E-01    0.151E+00
DAV:  16    -0.132342759062E+04    0.18990E-02   -0.27648E-03  6696   0.308E-01    0.118E+00
DAV:  17    -0.132342802551E+04   -0.43488E-03   -0.22374E-03  6760   0.297E-01    0.104E+00
DAV:  18    -0.132342607555E+04    0.19500E-02   -0.17580E-03  6760   0.269E-01    0.693E-01
DAV:  19    -0.132342545960E+04    0.61595E-03   -0.81244E-04  6680   0.163E-01    0.550E-01
DAV:  20    -0.132342578351E+04   -0.32391E-03   -0.64311E-04  6704   0.144E-01    0.567E-01
DAV:  21    -0.132342534135E+04    0.44217E-03   -0.58588E-04  6704   0.150E-01    0.371E-01
DAV:  22    -0.132342515215E+04    0.18920E-03   -0.35413E-04  6720   0.118E-01    0.289E-01
DAV:  23    -0.132342545556E+04   -0.30342E-03   -0.31431E-04  6912   0.107E-01    0.422E-01
DAV:  24    -0.132342520142E+04    0.25415E-03   -0.27710E-04  6832   0.101E-01    0.345E-01
DAV:  25    -0.132342510666E+04    0.94761E-04   -0.90780E-05  6680   0.526E-02    0.279E-01
DAV:  26    -0.132342508131E+04    0.25350E-04   -0.71108E-05  6616   0.497E-02    0.219E-01
DAV:  27    -0.132342499572E+04    0.85586E-04   -0.69539E-05  6600   0.494E-02    0.123E-01
DAV:  28    -0.132342498795E+04    0.77663E-05   -0.26772E-05  5368   0.267E-02    0.116E-01
DAV:  29    -0.132342498392E+04    0.40317E-05   -0.18489E-05  4392   0.210E-02
  12 F= -.14220111E+04 E0= -.14213208E+04  d E =-.638351E-01
 trial-energy change:   -0.063835  1 .order   -0.064006   -0.079432   -0.048580
 step:   6.5477(harm=  6.1708)  dis= 0.04414  next Energy= -1422.052274 (dE=-0.105E+00)
 bond charge predicted
       N       E                     dE             d eps       ncg     rms          rms(c)
DAV:   1    -0.132282664010E+04    0.59835E+00   -0.40514E+02  6060   0.211E+01    0.476E+00
DAV:   2    -0.135635661452E+04   -0.33530E+02   -0.91928E+00  6712   0.219E+01    0.847E+01
DAV:   3    -0.132490205189E+04    0.31455E+02   -0.67010E+00  6680   0.204E+01    0.230E+01
DAV:   4    -0.132569819961E+04   -0.79615E+00   -0.17982E+00  7040   0.696E+00    0.376E+01
DAV:   5    -0.132338853242E+04    0.23097E+01   -0.14114E+00  6736   0.548E+00    0.827E+00
DAV:   6    -0.132459518583E+04   -0.12067E+01   -0.84114E-01  6744   0.505E+00    0.225E+01
DAV:   7    -0.132397236176E+04    0.62282E+00   -0.85485E-01  6688   0.509E+00    0.167E+01
DAV:   8    -0.132357975797E+04    0.39260E+00   -0.38316E-01  6712   0.324E+00    0.115E+01
DAV:   9    -0.132347271366E+04    0.10704E+00   -0.16753E-01  6680   0.199E+00    0.955E+00
DAV:  10    -0.132342154194E+04    0.51172E-01   -0.14804E-01  6712   0.200E+00    0.822E+00
DAV:  11    -0.132331554691E+04    0.10600E+00   -0.12787E-01  6680   0.186E+00    0.506E+00
DAV:  12    -0.132329569207E+04    0.19855E-01   -0.62813E-02  6664   0.109E+00    0.438E+00
DAV:  13    -0.132328727040E+04    0.84217E-02   -0.41108E-02  6712   0.984E-01    0.369E+00
DAV:  14    -0.132329579646E+04   -0.85261E-02   -0.42546E-02  6760   0.103E+00    0.429E+00
DAV:  15    -0.132326451600E+04    0.31280E-01   -0.32681E-02  6704   0.904E-01    0.224E+00
DAV:  16    -0.132325902152E+04    0.54945E-02   -0.11075E-02  6720   0.536E-01    0.151E+00
DAV:  17    -0.132326390691E+04   -0.48854E-02   -0.79863E-03  6776   0.536E-01    0.186E+00
DAV:  18    -0.132325735268E+04    0.65542E-02   -0.62499E-03  6760   0.478E-01    0.126E+00
DAV:  19    -0.132325589725E+04    0.14554E-02   -0.29094E-03  6664   0.306E-01    0.105E+00
DAV:  20    -0.132325776914E+04   -0.18719E-02   -0.32132E-03  6688   0.334E-01    0.114E+00
DAV:  21    -0.132325533071E+04    0.24384E-02   -0.25166E-03  6712   0.328E-01    0.832E-01
DAV:  22    -0.132325540248E+04   -0.71762E-04   -0.14733E-03  6672   0.234E-01    0.857E-01
DAV:  23    -0.132325608037E+04   -0.67790E-03   -0.14975E-03  6664   0.232E-01    0.913E-01
DAV:  24    -0.132325435446E+04    0.17259E-02   -0.11110E-03  6720   0.207E-01    0.497E-01
DAV:  25    -0.132325413227E+04    0.22219E-03   -0.29137E-04  6744   0.927E-02    0.397E-01
DAV:  26    -0.132325412526E+04    0.70042E-05   -0.26415E-04  6712   0.888E-02    0.350E-01
DAV:  27    -0.132325389428E+04    0.23098E-03   -0.22620E-04  6680   0.843E-02    0.215E-01
DAV:  28    -0.132325386186E+04    0.32423E-04   -0.92862E-05  6648   0.466E-02    0.183E-01
DAV:  29    -0.132325387658E+04   -0.14718E-04   -0.78117E-05  6664   0.460E-02    0.169E-01
DAV:  30    -0.132325381158E+04    0.64997E-04   -0.70306E-05  6584   0.460E-02    0.829E-02
DAV:  31    -0.132325380533E+04    0.62548E-05   -0.28990E-05  5872   0.269E-02    0.699E-02
DAV:  32    -0.132325381574E+04   -0.10412E-04   -0.20530E-05  4688   0.251E-02    0.772E-02
DAV:  33    -0.132325380258E+04    0.13155E-04   -0.15463E-05  4160   0.222E-02    0.484E-02
DAV:  34    -0.132325380205E+04    0.53342E-06   -0.47034E-06  3168   0.102E-02
  13 F= -.14220463E+04 E0= -.14213647E+04  d E =-.990733E-01
 curvature: -10.03 expect dE=-0.920E-01 dE for cont linesearch -0.143E-02
 ZBRENT: interpolating
 opt :   5.8715  next Energy= -1422.047666 (dE=-0.100E+00)
 bond charge predicted
       N       E                     dE             d eps       ncg     rms          rms(c)
DAV:   1    -0.132328149659E+04   -0.27694E-01   -0.10764E+01  6060   0.343E+00    0.701E-01
DAV:   2    -0.132430136154E+04   -0.10199E+01   -0.55490E-01  6664   0.333E+00    0.197E+01
DAV:   3    -0.132332116291E+04    0.98020E+00   -0.43069E-01  6616   0.326E+00    0.315E+00
DAV:   4    -0.132334623101E+04   -0.25068E-01   -0.33364E-02  9176   0.951E-01    0.584E+00
DAV:   5    -0.132329992399E+04    0.46307E-01   -0.27667E-02  7936   0.914E-01    0.205E+00
DAV:   6    -0.132334227017E+04   -0.42346E-01   -0.30645E-02  7488   0.910E-01    0.480E+00
DAV:   7    -0.132330113219E+04    0.41138E-01   -0.30737E-02  7000   0.899E-01    0.212E+00
DAV:   8    -0.132329504388E+04    0.60883E-02   -0.82381E-03  6824   0.458E-01    0.164E+00
DAV:   9    -0.132329246473E+04    0.25792E-02   -0.43684E-03  6872   0.313E-01    0.121E+00
DAV:  10    -0.132329267298E+04   -0.20825E-03   -0.32676E-03  6768   0.317E-01    0.116E+00
DAV:  11    -0.132329038904E+04    0.22839E-02   -0.31008E-03  6712   0.297E-01    0.848E-01
DAV:  12    -0.132328933541E+04    0.10536E-02   -0.13058E-03  6696   0.174E-01    0.529E-01
DAV:  13    -0.132328909063E+04    0.24478E-03   -0.55779E-04  6744   0.118E-01    0.437E-01
DAV:  14    -0.132328935075E+04   -0.26011E-03   -0.46372E-04  6824   0.103E-01    0.550E-01
DAV:  15    -0.132328904904E+04    0.30171E-03   -0.46131E-04  6712   0.108E-01    0.371E-01
DAV:  16    -0.132328879276E+04    0.25629E-03   -0.20644E-04  6680   0.858E-02    0.218E-01
DAV:  17    -0.132328883805E+04   -0.45290E-04   -0.11553E-04  6888   0.663E-02    0.230E-01
DAV:  18    -0.132328882607E+04    0.11979E-04   -0.13090E-04  6808   0.728E-02    0.200E-01
DAV:  19    -0.132328870917E+04    0.11689E-03   -0.76293E-05  6712   0.565E-02    0.965E-02
DAV:  20    -0.132328870108E+04    0.80953E-05   -0.22155E-05  4880   0.252E-02    0.822E-02
DAV:  21    -0.132328871941E+04   -0.18337E-04   -0.22236E-05  4920   0.287E-02    0.109E-01
DAV:  22    -0.132328869081E+04    0.28605E-04   -0.20134E-05  4688   0.281E-02    0.592E-02
DAV:  23    -0.132328868572E+04    0.50894E-05   -0.75207E-06  3120   0.156E-02    0.449E-02
DAV:  24    -0.132328868735E+04   -0.16345E-05   -0.53467E-06  3112   0.134E-02
  14 F= -.14220474E+04 E0= -.14213644E+04  d E =-.100174E+00
 curvature:  -9.33 expect dE=-0.666E-01 dE for cont linesearch -0.276E-04
 trial: gam= 0.20030 g(F)=  0.714E-02 g(S)=  0.000E+00 ort = 0.567E-03 (trialstep = 0.309E+01)
 search vector abs. value=  0.117E-01
 bond charge predicted
       N       E                     dE             d eps       ncg     rms          rms(c)
DAV:   1    -0.132324676143E+04    0.41924E-01   -0.23834E+01  6076   0.514E+00    0.901E-01
DAV:   2    -0.132438774488E+04   -0.11410E+01   -0.58905E-01  6648   0.356E+00    0.215E+01
DAV:   3    -0.132332380641E+04    0.10639E+01   -0.56123E-01  6608   0.363E+00    0.473E+00
DAV:   4    -0.132346311284E+04   -0.13931E+00   -0.74944E-02  6680   0.158E+00    0.109E+01
DAV:   5    -0.132328585521E+04    0.17726E+00   -0.78525E-02  6608   0.149E+00    0.219E+00
DAV:   6    -0.132333549309E+04   -0.49638E-01   -0.46916E-02  6616   0.117E+00    0.502E+00
DAV:   7    -0.132330356280E+04    0.31930E-01   -0.49246E-02  6592   0.114E+00    0.369E+00
DAV:   8    -0.132328082583E+04    0.22737E-01   -0.19237E-02  6552   0.735E-01    0.199E+00
DAV:   9    -0.132327783641E+04    0.29894E-02   -0.85895E-03  6552   0.459E-01    0.171E+00
DAV:  10    -0.132328241896E+04   -0.45826E-02   -0.97731E-03  6648   0.480E-01    0.212E+00
DAV:  11    -0.132327413881E+04    0.82802E-02   -0.81962E-03  6648   0.462E-01    0.104E+00
DAV:  12    -0.132327266539E+04    0.14734E-02   -0.25566E-03  6608   0.258E-01    0.865E-01
DAV:  13    -0.132327279443E+04   -0.12903E-03   -0.15149E-03  6616   0.185E-01    0.903E-01
DAV:  14    -0.132327322613E+04   -0.43171E-03   -0.14943E-03  6672   0.200E-01    0.899E-01
DAV:  15    -0.132327273767E+04    0.48846E-03   -0.13731E-03  6696   0.200E-01    0.826E-01
DAV:  16    -0.132327160295E+04    0.11347E-02   -0.84907E-04  6616   0.147E-01    0.396E-01
DAV:  17    -0.132327154394E+04    0.59005E-04   -0.33574E-04  6648   0.104E-01    0.346E-01
DAV:  18    -0.132327161695E+04   -0.73007E-04   -0.34161E-04  6704   0.113E-01    0.338E-01
DAV:  19    -0.132327131584E+04    0.30111E-03   -0.24830E-04  6696   0.100E-01    0.183E-01
DAV:  20    -0.132327128812E+04    0.27716E-04   -0.69765E-05  6816   0.444E-02    0.154E-01
DAV:  21    -0.132327133411E+04   -0.45993E-04   -0.66732E-05  6808   0.457E-02    0.181E-01
DAV:  22    -0.132327129313E+04    0.40989E-04   -0.60311E-05  6752   0.453E-02    0.143E-01
DAV:  23    -0.132327127832E+04    0.14802E-04   -0.24337E-05  5672   0.294E-02    0.126E-01
DAV:  24    -0.132327127688E+04    0.14440E-05   -0.20275E-05  4800   0.269E-02
  15 F= -.14220638E+04 E0= -.14213817E+04  d E =-.163405E-01
 trial-energy change:   -0.016340  1 .order   -0.016290   -0.022433   -0.010148
 step:   5.5384(harm=  5.6456)  dis= 0.01700  next Energy= -1422.067814 (dE=-0.204E-01)
 bond charge predicted
       N       E                     dE             d eps       ncg     rms          rms(c)
DAV:   1    -0.132323328656E+04    0.37992E-01   -0.14923E+01  6076   0.406E+00    0.703E-01
DAV:   2    -0.132389564935E+04   -0.66236E+00   -0.37470E-01  6648   0.273E+00    0.164E+01
DAV:   3    -0.132329899149E+04    0.59666E+00   -0.32823E-01  6608   0.283E+00    0.497E+00
DAV:   4    -0.132334188738E+04   -0.42896E-01   -0.39115E-02  6680   0.123E+00    0.746E+00
DAV:   5    -0.132325699489E+04    0.84892E-01   -0.43159E-02  6616   0.114E+00    0.168E+00
DAV:   6    -0.132328656832E+04   -0.29573E-01   -0.29485E-02  6600   0.919E-01    0.385E+00
DAV:   7    -0.132326778285E+04    0.18785E-01   -0.30198E-02  6552   0.885E-01    0.283E+00
DAV:   8    -0.132325394407E+04    0.13839E-01   -0.11582E-02  6536   0.566E-01    0.146E+00
DAV:   9    -0.132325235570E+04    0.15884E-02   -0.50137E-03  6536   0.340E-01    0.129E+00
DAV:  10    -0.132325435892E+04   -0.20032E-02   -0.55040E-03  6648   0.365E-01    0.149E+00
DAV:  11    -0.132325036240E+04    0.39965E-02   -0.44490E-03  6632   0.349E-01    0.787E-01
DAV:  12    -0.132324947893E+04    0.88347E-03   -0.16755E-03  6608   0.203E-01    0.640E-01
DAV:  13    -0.132324946759E+04    0.11333E-04   -0.96589E-04  6616   0.142E-01    0.636E-01
DAV:  14    -0.132324980183E+04   -0.33424E-03   -0.82520E-04  6680   0.148E-01    0.684E-01
DAV:  15    -0.132324961089E+04    0.19094E-03   -0.79319E-04  6624   0.151E-01    0.663E-01
DAV:  16    -0.132324890898E+04    0.70191E-03   -0.52331E-04  6584   0.115E-01    0.343E-01
DAV:  17    -0.132324886106E+04    0.47915E-04   -0.19601E-04  6664   0.820E-02    0.300E-01
DAV:  18    -0.132324888323E+04   -0.22164E-04   -0.22111E-04  6728   0.907E-02    0.266E-01
DAV:  19    -0.132324868451E+04    0.19872E-03   -0.15722E-04  6728   0.796E-02    0.133E-01
DAV:  20    -0.132324866769E+04    0.16821E-04   -0.41514E-05  6584   0.328E-02    0.106E-01
DAV:  21    -0.132324869988E+04   -0.32190E-04   -0.36146E-05  6248   0.345E-02    0.141E-01
DAV:  22    -0.132324868453E+04    0.15343E-04   -0.35800E-05  6224   0.339E-02    0.125E-01
DAV:  23    -0.132324867120E+04    0.13333E-04   -0.15351E-05  4040   0.228E-02    0.106E-01
DAV:  24    -0.132324866741E+04    0.37903E-05   -0.94594E-06  3288   0.189E-02
  16 F= -.14220680E+04 E0= -.14213867E+04  d E =-.205515E-01
 curvature:  -4.56 expect dE=-0.943E-02 dE for cont linesearch -0.994E-05
 trial: gam= 0.24865 g(F)=  0.207E-02 g(S)=  0.000E+00 ort = 0.160E-03 (trialstep = 0.358E+01)
 search vector abs. value=  0.287E-02
 bond charge predicted
       N       E                     dE             d eps       ncg     rms          rms(c)
DAV:   1    -0.132323664841E+04    0.12023E-01   -0.78049E+00  6076   0.293E+00    0.403E-01
DAV:   2    -0.132334000133E+04   -0.10335E+00   -0.11463E-01  6760   0.123E+00    0.617E+00
DAV:   3    -0.132329323382E+04    0.46768E-01   -0.84113E-02  6656   0.137E+00    0.529E+00
DAV:   4    -0.132326777814E+04    0.25456E-01   -0.19872E-02  6632   0.886E-01    0.348E+00
DAV:   5    -0.132324808003E+04    0.19698E-01   -0.16426E-02  6616   0.631E-01    0.114E+00
DAV:   6    -0.132326542286E+04   -0.17343E-01   -0.13150E-02  6712   0.611E-01    0.295E+00
DAV:   7    -0.132325366086E+04    0.11762E-01   -0.16704E-02  6728   0.638E-01    0.176E+00
DAV:   8    -0.132324730198E+04    0.63589E-02   -0.50675E-03  6664   0.404E-01    0.103E+00
DAV:   9    -0.132324592771E+04    0.13743E-02   -0.22666E-03  6584   0.221E-01    0.681E-01
DAV:  10    -0.132324618352E+04   -0.25580E-03   -0.14938E-03  6600   0.205E-01    0.685E-01
DAV:  11    -0.132324628881E+04   -0.10529E-03   -0.14404E-03  6632   0.211E-01    0.775E-01
DAV:  12    -0.132324545865E+04    0.83015E-03   -0.10543E-03  6600   0.158E-01    0.497E-01
DAV:  13    -0.132324519840E+04    0.26025E-03   -0.44154E-04  6584   0.105E-01    0.362E-01
DAV:  14    -0.132324541104E+04   -0.21264E-03   -0.32586E-04  6648   0.989E-02    0.458E-01
DAV:  15    -0.132324540145E+04    0.95980E-05   -0.48391E-04  6672   0.109E-01    0.441E-01
DAV:  16    -0.132324501441E+04    0.38703E-03   -0.32905E-04  6664   0.954E-02    0.197E-01
DAV:  17    -0.132324494815E+04    0.66268E-04   -0.88066E-05  6664   0.572E-02    0.130E-01
DAV:  18    -0.132324501281E+04   -0.64669E-04   -0.76227E-05  6800   0.518E-02    0.189E-01
DAV:  19    -0.132324496629E+04    0.46524E-04   -0.67580E-05  6752   0.487E-02    0.151E-01
DAV:  20    -0.132324494142E+04    0.24871E-04   -0.26540E-05  5568   0.302E-02    0.121E-01
DAV:  21    -0.132324493624E+04    0.51830E-05   -0.14416E-05  3920   0.227E-02    0.104E-01
DAV:  22    -0.132324492027E+04    0.15967E-04   -0.12808E-05  3760   0.223E-02    0.519E-02
DAV:  23    -0.132324491418E+04    0.60939E-05   -0.67018E-06  3312   0.153E-02    0.306E-02
DAV:  24    -0.132324491496E+04   -0.78464E-06   -0.38129E-06  3128   0.107E-02
  17 F= -.14220734E+04 E0= -.14213923E+04  d E =-.544415E-02
 trial-energy change:   -0.005444  1 .order   -0.005443   -0.007554   -0.003332
 step:   6.4074(harm=  6.4074)  dis= 0.00830  next Energy= -1422.074743 (dE=-0.676E-02)
 bond charge predicted
       N       E                     dE             d eps       ncg     rms          rms(c)
DAV:   1    -0.132323384143E+04    0.11073E-01   -0.48618E+00  6076   0.232E+00    0.315E-01
DAV:   2    -0.132330743462E+04   -0.73593E-01   -0.71910E-02  6752   0.991E-01    0.539E+00
DAV:   3    -0.132328465092E+04    0.22784E-01   -0.53943E-02  6800   0.115E+00    0.515E+00
DAV:   4    -0.132325038637E+04    0.34265E-01   -0.17133E-02  6664   0.776E-01    0.232E+00
DAV:   5    -0.132324114888E+04    0.92375E-02   -0.10776E-02  6648   0.492E-01    0.945E-01
DAV:   6    -0.132325330172E+04   -0.12153E-01   -0.90274E-03  6752   0.508E-01    0.247E+00
DAV:   7    -0.132324445038E+04    0.88513E-02   -0.10709E-02  6776   0.522E-01    0.139E+00
DAV:   8    -0.132324054162E+04    0.39088E-02   -0.31257E-03  6632   0.315E-01    0.835E-01
DAV:   9    -0.132323975500E+04    0.78661E-03   -0.14014E-03  6632   0.174E-01    0.595E-01
DAV:  10    -0.132323996485E+04   -0.20985E-03   -0.10211E-03  6696   0.170E-01    0.601E-01
DAV:  11    -0.132323978162E+04    0.18323E-03   -0.88199E-04  6664   0.172E-01    0.597E-01
DAV:  12    -0.132323940574E+04    0.37588E-03   -0.58210E-04  6616   0.117E-01    0.459E-01
DAV:  13    -0.132323927720E+04    0.12854E-03   -0.28812E-04  6616   0.822E-02    0.382E-01
DAV:  14    -0.132323940764E+04   -0.13044E-03   -0.26067E-04  6664   0.847E-02    0.431E-01
DAV:  15    -0.132323927635E+04    0.13129E-03   -0.32558E-04  6680   0.896E-02    0.333E-01
DAV:  16    -0.132323904086E+04    0.23550E-03   -0.17059E-04  6680   0.729E-02    0.152E-01
DAV:  17    -0.132323902234E+04    0.18518E-04   -0.52401E-05  6624   0.429E-02    0.131E-01
DAV:  18    -0.132323906630E+04   -0.43963E-04   -0.55911E-05  6624   0.442E-02    0.168E-01
DAV:  19    -0.132323901147E+04    0.54835E-04   -0.46204E-05  6592   0.410E-02    0.107E-01
DAV:  20    -0.132323900264E+04    0.88287E-05   -0.13710E-05  3464   0.217E-02    0.884E-02
DAV:  21    -0.132323900124E+04    0.14000E-05   -0.10676E-05  3384   0.195E-02
  18 F= -.14220748E+04 E0= -.14213938E+04  d E =-.684548E-02
 curvature:  -4.37 expect dE=-0.358E-02 dE for cont linesearch -0.316E-06
 trial: gam= 0.39940 g(F)=  0.820E-03 g(S)=  0.000E+00 ort =-0.144E-04 (trialstep = 0.415E+01)
 search vector abs. value=  0.127E-02
 bond charge predicted
       N       E                     dE             d eps       ncg     rms          rms(c)
DAV:   1    -0.132323588935E+04    0.31133E-02   -0.43961E+00  6076   0.220E+00    0.376E-01
DAV:   2    -0.132331464318E+04   -0.78754E-01   -0.69536E-02  6744   0.963E-01    0.595E+00
DAV:   3    -0.132330341275E+04    0.11230E-01   -0.38803E-02  6936   0.119E+00    0.597E+00
DAV:   4    -0.132324767483E+04    0.55738E-01   -0.17977E-02  6704   0.842E-01    0.156E+00
DAV:   5    -0.132325367504E+04   -0.60002E-02   -0.12816E-02  6808   0.599E-01    0.224E+00
DAV:   6    -0.132326084299E+04   -0.71679E-02   -0.17744E-02  6688   0.658E-01    0.285E+00
DAV:   7    -0.132324573442E+04    0.15109E-01   -0.12287E-02  6680   0.563E-01    0.126E+00
DAV:   8    -0.132324296457E+04    0.27699E-02   -0.26443E-03  6616   0.299E-01    0.815E-01
DAV:   9    -0.132324374333E+04   -0.77877E-03   -0.24244E-03  6776   0.229E-01    0.101E+00
DAV:  10    -0.132324344253E+04    0.30081E-03   -0.27946E-03  6720   0.249E-01    0.829E-01
DAV:  11    -0.132324291699E+04    0.52554E-03   -0.14580E-03  6680   0.212E-01    0.851E-01
DAV:  12    -0.132324251495E+04    0.40204E-03   -0.79385E-04  6680   0.137E-01    0.781E-01
DAV:  13    -0.132324224961E+04    0.26534E-03   -0.37032E-04  6744   0.932E-02    0.702E-01
DAV:  14    -0.132324249332E+04   -0.24371E-03   -0.46954E-04  6792   0.109E-01    0.745E-01
DAV:  15    -0.132324170995E+04    0.78337E-03   -0.51386E-04  6744   0.121E-01    0.313E-01
DAV:  16    -0.132324148805E+04    0.22190E-03   -0.19232E-04  6728   0.867E-02    0.194E-01
DAV:  17    -0.132324153329E+04   -0.45244E-04   -0.10885E-04  7368   0.581E-02    0.232E-01
DAV:  18    -0.132324150698E+04    0.26308E-04   -0.93846E-05  6968   0.548E-02    0.200E-01
DAV:  19    -0.132324144763E+04    0.59348E-04   -0.55465E-05  6680   0.432E-02    0.145E-01
DAV:  20    -0.132324144442E+04    0.32105E-05   -0.19466E-05  4256   0.251E-02
  19 F= -.14220771E+04 E0= -.14213961E+04  d E =-.226384E-02
 trial-energy change:   -0.002264  1 .order   -0.002137   -0.003374   -0.000899
 step:   5.2317(harm=  5.6534)  dis= 0.00963  next Energy= -1422.077214 (dE=-0.238E-02)
 bond charge predicted
       N       E                     dE             d eps       ncg     rms          rms(c)
DAV:   1    -0.132324124854E+04    0.19910E-03   -0.30115E-01  6082   0.576E-01    0.120E-01
DAV:   2    -0.132325672755E+04   -0.15479E-01   -0.55591E-03  6672   0.411E-01    0.279E+00
DAV:   3    -0.132324913247E+04    0.75951E-02   -0.39954E-03  6616   0.467E-01    0.192E+00
DAV:   4    -0.132324245450E+04    0.66780E-02   -0.19436E-03  6608   0.315E-01    0.547E-01
DAV:   5    -0.132324283120E+04   -0.37669E-03   -0.14174E-03  6784   0.189E-01    0.714E-01
DAV:   6    -0.132324358913E+04   -0.75793E-03   -0.19731E-03  6760   0.214E-01    0.870E-01
DAV:   7    -0.132324270467E+04    0.88445E-03   -0.17206E-03  6712   0.202E-01    0.642E-01
DAV:   8    -0.132324187603E+04    0.82865E-03   -0.69004E-04  6656   0.139E-01    0.309E-01
DAV:   9    -0.132324168662E+04    0.18941E-03   -0.18092E-04  6632   0.719E-02    0.166E-01
DAV:  10    -0.132324182742E+04   -0.14080E-03   -0.14880E-04  6712   0.633E-02    0.298E-01
DAV:  11    -0.132324179282E+04    0.34604E-04   -0.18213E-04  6608   0.690E-02    0.265E-01
DAV:  12    -0.132324174291E+04    0.49910E-04   -0.92481E-05  6568   0.532E-02    0.257E-01
DAV:  13    -0.132324171896E+04    0.23944E-04   -0.46985E-05  6152   0.309E-02    0.234E-01
DAV:  14    -0.132324170752E+04    0.11439E-04   -0.28456E-05  5096   0.273E-02    0.209E-01
DAV:  15    -0.132324166698E+04    0.40541E-04   -0.32825E-05  4640   0.346E-02    0.132E-01
DAV:  16    -0.132324164274E+04    0.24244E-04   -0.25652E-05  3752   0.280E-02    0.865E-02
DAV:  17    -0.132324163099E+04    0.11746E-04   -0.98171E-06  3312   0.188E-02    0.521E-02
DAV:  18    -0.132324164004E+04   -0.90438E-05   -0.73991E-06  3312   0.178E-02    0.774E-02
DAV:  19    -0.132324163503E+04    0.50068E-05   -0.69500E-06  3280   0.168E-02    0.637E-02
DAV:  20    -0.132324162994E+04    0.50857E-05   -0.36848E-06  3168   0.120E-02    0.488E-02
DAV:  21    -0.132324162949E+04    0.45053E-06   -0.18067E-06  3112   0.788E-03
  20 F= -.14220772E+04 E0= -.14213961E+04  d E =-.240890E-02
 curvature:  -4.06 expect dE=-0.133E-02 dE for cont linesearch -0.152E-04
 trial: gam= 0.30115 g(F)=  0.328E-03 g(S)=  0.000E+00 ort = 0.688E-04 (trialstep = 0.436E+01)
 search vector abs. value=  0.484E-03
 bond charge predicted
       N       E                     dE             d eps       ncg     rms          rms(c)
DAV:   1    -0.132324449430E+04   -0.28644E-02   -0.19717E+00  6060   0.147E+00    0.222E-01
DAV:   2    -0.132330794530E+04   -0.63451E-01   -0.28498E-02  6688   0.772E-01    0.579E+00
DAV:   3    -0.132326882540E+04    0.39120E-01   -0.21086E-02  7400   0.890E-01    0.337E+00
DAV:   4    -0.132324943944E+04    0.19386E-01   -0.83289E-03  7048   0.536E-01    0.112E+00
DAV:   5    -0.132324902356E+04    0.41588E-03   -0.51587E-03  7200   0.332E-01    0.103E+00
DAV:   6    -0.132325479109E+04   -0.57675E-02   -0.65793E-03  7008   0.390E-01    0.185E+00
DAV:   7    -0.132324916176E+04    0.56293E-02   -0.70762E-03  6960   0.392E-01    0.101E+00
DAV:   8    -0.132324801297E+04    0.11488E-02   -0.25828E-03  6744   0.255E-01    0.839E-01
DAV:   9    -0.132324750598E+04    0.50700E-03   -0.15191E-03  6768   0.192E-01    0.647E-01
DAV:  10    -0.132324743555E+04    0.70425E-04   -0.11185E-03  6816   0.178E-01    0.557E-01
DAV:  11    -0.132324709626E+04    0.33929E-03   -0.77421E-04  6768   0.153E-01    0.527E-01
DAV:  12    -0.132324669533E+04    0.40094E-03   -0.38857E-04  6712   0.978E-02    0.343E-01
DAV:  13    -0.132324666846E+04    0.26868E-04   -0.14024E-04  6688   0.600E-02    0.350E-01
DAV:  14    -0.132324680963E+04   -0.14117E-03   -0.17605E-04  6720   0.650E-02    0.423E-01
DAV:  15    -0.132324675948E+04    0.50145E-04   -0.21279E-04  6720   0.758E-02    0.358E-01
DAV:  16    -0.132324655156E+04    0.20792E-03   -0.11289E-04  6728   0.642E-02    0.218E-01
DAV:  17    -0.132324653096E+04    0.20600E-04   -0.40560E-05  6472   0.401E-02    0.175E-01
DAV:  18    -0.132324652066E+04    0.10300E-04   -0.38243E-05  6208   0.447E-02    0.154E-01
DAV:  19    -0.132324650301E+04    0.17647E-04   -0.24596E-05  5360   0.327E-02    0.164E-01
DAV:  20    -0.132324649673E+04    0.62871E-05   -0.12544E-05  3568   0.188E-02    0.150E-01
DAV:  21    -0.132324647814E+04    0.18583E-04   -0.11517E-05  3272   0.208E-02    0.953E-02
DAV:  22    -0.132324645851E+04    0.19637E-04   -0.71576E-06  3304   0.188E-02    0.303E-02
DAV:  23    -0.132324645768E+04    0.83074E-06   -0.31714E-06  3136   0.102E-02
  21 F= -.14220780E+04 E0= -.14213969E+04  d E =-.783595E-03
 trial-energy change:   -0.000784  1 .order   -0.000779   -0.001522   -0.000036
 step:   4.4702(harm=  4.4702)  dis= 0.00267  next Energy= -1422.078019 (dE=-0.780E-03)
 bond charge predicted
       N       E                     dE             d eps       ncg     rms          rms(c)
DAV:   1    -0.132324655586E+04   -0.97353E-04   -0.11763E-03  6080   0.370E-02    0.275E-02
DAV:   2    -0.132324712146E+04   -0.56560E-03   -0.29922E-04  7648   0.997E-02    0.448E-01
DAV:   3    -0.132324688695E+04    0.23452E-03   -0.31413E-04  7224   0.103E-01    0.416E-01
DAV:   4    -0.132324676907E+04    0.11788E-03   -0.74733E-05  6296   0.705E-02    0.337E-01
DAV:   5    -0.132324656938E+04    0.19969E-03   -0.49942E-05  5816   0.457E-02    0.601E-02
DAV:   6    -0.132324656933E+04    0.47497E-07   -0.21520E-05  4360   0.255E-02
  22 F= -.14220780E+04 E0= -.14213969E+04  d E =-.796544E-03
 curvature:  -3.10 expect dE=-0.655E-03 dE for cont linesearch -0.320E-05
 trial: gam= 0.77811 g(F)=  0.211E-03 g(S)=  0.000E+00 ort =-0.223E-04 (trialstep = 0.438E+01)
 search vector abs. value=  0.470E-03
 bond charge predicted
       N       E                     dE             d eps       ncg     rms          rms(c)
DAV:   1    -0.132325107675E+04   -0.45074E-02   -0.18658E+00  6076   0.144E+00    0.252E-01
DAV:   2    -0.132328212053E+04   -0.31044E-01   -0.28795E-02  6664   0.676E-01    0.354E+00
DAV:   3    -0.132326128021E+04    0.20840E-01   -0.19081E-02  6536   0.711E-01    0.206E+00
DAV:   4    -0.132326198982E+04   -0.70960E-03   -0.41097E-03  6536   0.443E-01    0.229E+00
DAV:   5    -0.132325530130E+04    0.66885E-02   -0.44066E-03  6608   0.385E-01    0.962E-01
DAV:   6    -0.132326058611E+04   -0.52848E-02   -0.54878E-03  6648   0.377E-01    0.177E+00
DAV:   7    -0.132325556899E+04    0.50171E-02   -0.52898E-03  6632   0.369E-01    0.905E-01
DAV:   8    -0.132325429304E+04    0.12759E-02   -0.25120E-03  6616   0.246E-01    0.714E-01
DAV:   9    -0.132325340284E+04    0.89020E-03   -0.11046E-03  6600   0.154E-01    0.388E-01
DAV:  10    -0.132325349783E+04   -0.94995E-04   -0.56985E-04  6616   0.130E-01    0.400E-01
DAV:  11    -0.132325399847E+04   -0.50064E-03   -0.82960E-04  6632   0.143E-01    0.628E-01
DAV:  12    -0.132325338709E+04    0.61138E-03   -0.61998E-04  6632   0.129E-01    0.355E-01
DAV:  13    -0.132325311078E+04    0.27631E-03   -0.20571E-04  6656   0.810E-02    0.177E-01
DAV:  14    -0.132325308960E+04    0.21185E-04   -0.94631E-05  6600   0.453E-02    0.158E-01
DAV:  15    -0.132325312184E+04   -0.32241E-04   -0.85230E-05  6680   0.499E-02    0.169E-01
DAV:  16    -0.132325309406E+04    0.27780E-04   -0.75583E-05  6624   0.515E-02    0.139E-01
DAV:  17    -0.132325304679E+04    0.47264E-04   -0.33349E-05  6288   0.372E-02    0.629E-02
DAV:  18    -0.132325304697E+04   -0.17928E-06   -0.13618E-05  3560   0.225E-02
  23 F= -.14220785E+04 E0= -.14213972E+04  d E =-.496124E-03
 trial-energy change:   -0.000496  1 .order   -0.000408   -0.000850    0.000034
 step:   4.2774(harm=  4.2144)  dis= 0.00399  next Energy= -1422.078532 (dE=-0.497E-03)
 bond charge predicted
       N       E                     dE             d eps       ncg     rms          rms(c)
DAV:   1    -0.132325290041E+04    0.14638E-03   -0.11137E-03  6136   0.420E-02    0.772E-02
DAV:   2    -0.132325974216E+04   -0.68418E-02   -0.22731E-03  8472   0.312E-01    0.166E+00
DAV:   3    -0.132326177706E+04   -0.20349E-02   -0.24749E-03  7176   0.376E-01    0.226E+00
DAV:   4    -0.132325362990E+04    0.81472E-02   -0.11867E-03  7104   0.274E-01    0.477E-01
DAV:   5    -0.132325318823E+04    0.44167E-03   -0.54987E-04  7248   0.117E-01    0.356E-01
DAV:   6    -0.132325324116E+04   -0.52930E-04   -0.49949E-04  6920   0.114E-01    0.358E-01
DAV:   7    -0.132325353910E+04   -0.29794E-03   -0.57973E-04  6704   0.117E-01    0.510E-01
DAV:   8    -0.132325306485E+04    0.47425E-03   -0.41240E-04  6664   0.104E-01    0.250E-01
DAV:   9    -0.132325294093E+04    0.12391E-03   -0.10665E-04  6480   0.591E-02    0.155E-01
DAV:  10    -0.132325290534E+04    0.35593E-04   -0.50859E-05  5512   0.333E-02    0.988E-02
DAV:  11    -0.132325290919E+04   -0.38506E-05   -0.29802E-05  5104   0.284E-02
  24 F= -.14220785E+04 E0= -.14213972E+04  d E =-.504635E-03
 curvature:  -4.41 expect dE=-0.329E-03 dE for cont linesearch -0.880E-05
 trial: gam= 0.14224 g(F)=  0.746E-04 g(S)=  0.000E+00 ort = 0.306E-04 (trialstep = 0.436E+01)
 search vector abs. value=  0.928E-04
 bond charge predicted
       N       E                     dE             d eps       ncg     rms          rms(c)
DAV:   1    -0.132325624054E+04   -0.33352E-02   -0.37764E-01  6074   0.651E-01    0.135E-01
DAV:   2    -0.132328310196E+04   -0.26861E-01   -0.13186E-02  6664   0.550E-01    0.345E+00
DAV:   3    -0.132326832472E+04    0.14777E-01   -0.12251E-02  6640   0.607E-01    0.256E+00
DAV:   4    -0.132325794644E+04    0.10378E-01   -0.20280E-03  6576   0.336E-01    0.685E-01
DAV:   5    -0.132325751698E+04    0.42946E-03   -0.15948E-03  6632   0.191E-01    0.635E-01
DAV:   6    -0.132325769739E+04   -0.18041E-03   -0.15180E-03  6720   0.192E-01    0.615E-01
DAV:   7    -0.132325783272E+04   -0.13533E-03   -0.12206E-03  6712   0.194E-01    0.666E-01
DAV:   8    -0.132325714742E+04    0.68529E-03   -0.85969E-04  6680   0.149E-01    0.470E-01
DAV:   9    -0.132325675399E+04    0.39343E-03   -0.29643E-04  6616   0.929E-02    0.222E-01
DAV:  10    -0.132325673183E+04    0.22161E-04   -0.11986E-04  6664   0.565E-02    0.209E-01
DAV:  11    -0.132325675327E+04   -0.21435E-04   -0.13447E-04  6696   0.548E-02    0.222E-01
DAV:  12    -0.132325668991E+04    0.63352E-04   -0.10174E-04  6640   0.523E-02    0.158E-01
DAV:  13    -0.132325665541E+04    0.34503E-04   -0.34506E-05  6176   0.320E-02    0.127E-01
DAV:  14    -0.132325665565E+04   -0.24168E-06   -0.15446E-05  3584   0.196E-02
  25 F= -.14220787E+04 E0= -.14213972E+04  d E =-.203427E-03
 trial-energy change:   -0.000203  1 .order   -0.000159   -0.000345    0.000026
 step:   4.1826(harm=  4.0589)  dis= 0.00074  next Energy= -1422.078745 (dE=-0.204E-03)
 bond charge predicted
       N       E                     dE             d eps       ncg     rms          rms(c)
DAV:   1    -0.132325650614E+04    0.14927E-03   -0.64257E-04  6320   0.371E-02    0.124E-01
DAV:   2    -0.132329083882E+04   -0.34333E-01   -0.12475E-02  8096   0.588E-01    0.406E+00
DAV:   3    -0.132327050637E+04    0.20332E-01   -0.13025E-02  7296   0.650E-01    0.282E+00
DAV:   4    -0.132325749848E+04    0.13008E-01   -0.17761E-03  6904   0.342E-01    0.520E-01
DAV:   5    -0.132325722939E+04    0.26909E-03   -0.87383E-04  7656   0.170E-01    0.524E-01
DAV:   6    -0.132325840268E+04   -0.11733E-02   -0.17679E-03  7152   0.192E-01    0.869E-01
DAV:   7    -0.132325759754E+04    0.80514E-03   -0.17190E-03  6936   0.197E-01    0.610E-01
DAV:   8    -0.132325669739E+04    0.90014E-03   -0.55524E-04  6792   0.139E-01    0.286E-01
DAV:   9    -0.132325652060E+04    0.17679E-03   -0.12866E-04  6728   0.630E-02    0.142E-01
DAV:  10    -0.132325650726E+04    0.13344E-04   -0.61256E-05  6656   0.408E-02    0.114E-01
DAV:  11    -0.132325654913E+04   -0.41870E-04   -0.61152E-05  6440   0.409E-02    0.182E-01
DAV:  12    -0.132325650185E+04    0.47273E-04   -0.56375E-05  6120   0.367E-02    0.111E-01
DAV:  13    -0.132325647955E+04    0.22303E-04   -0.17600E-05  3840   0.221E-02    0.601E-02
DAV:  14    -0.132325647788E+04    0.16687E-05   -0.58135E-06  3232   0.106E-02
  26 F= -.14220787E+04 E0= -.14213972E+04  d E =-.172343E-03
 curvature:  -1.99 expect dE=-0.574E-04 dE for cont linesearch -0.865E-05
 trial: gam= 0.16261 g(F)=  0.288E-04 g(S)=  0.000E+00 ort = 0.201E-04 (trialstep = 0.433E+01)
 search vector abs. value=  0.378E-04
 bond charge predicted
       N       E                     dE             d eps       ncg     rms          rms(c)
DAV:   1    -0.132325907564E+04   -0.25961E-02   -0.15038E-01  6077   0.411E-01    0.101E-01
DAV:   2    -0.132330097297E+04   -0.41897E-01   -0.10174E-02  6680   0.570E-01    0.479E+00
DAV:   3    -0.132326949836E+04    0.31475E-01   -0.73971E-03  6664   0.630E-01    0.224E+00
DAV:   4    -0.132326007331E+04    0.94251E-02   -0.27265E-03  6864   0.311E-01    0.483E-01
DAV:   5    -0.132326145627E+04   -0.13830E-02   -0.15706E-03  6696   0.221E-01    0.954E-01
DAV:   6    -0.132326165012E+04   -0.19385E-03   -0.24096E-03  6632   0.242E-01    0.951E-01
DAV:   7    -0.132325980501E+04    0.18451E-02   -0.13996E-03  6640   0.207E-01    0.465E-01
DAV:   8    -0.132325937783E+04    0.42718E-03   -0.33771E-04  6600   0.105E-01    0.273E-01
DAV:   9    -0.132325931940E+04    0.58426E-04   -0.17851E-04  6600   0.613E-02    0.220E-01
DAV:  10    -0.132325933140E+04   -0.11995E-04   -0.15071E-04  6608   0.633E-02    0.196E-01
DAV:  11    -0.132325926000E+04    0.71403E-04   -0.96341E-05  6632   0.552E-02    0.162E-01
DAV:  12    -0.132325924776E+04    0.12235E-04   -0.35246E-05  6016   0.280E-02    0.150E-01
DAV:  13    -0.132325923915E+04    0.86143E-05   -0.19294E-05  3576   0.202E-02    0.134E-01
DAV:  14    -0.132325923909E+04    0.59605E-07   -0.11462E-05  3264   0.198E-02
  27 F= -.14220788E+04 E0= -.14213972E+04  d E =-.107848E-03
 trial-energy change:   -0.000108  1 .order   -0.000059   -0.000139    0.000021
 step:   4.1185(harm=  3.7539)  dis= 0.00046  next Energy= -1422.078821 (dE=-0.108E-03)
 bond charge predicted
       N       E                     dE             d eps       ncg     rms          rms(c)
DAV:   1    -0.132325908777E+04    0.15138E-03   -0.34188E-04  6304   0.276E-02    0.685E-02
DAV:   2    -0.132331491085E+04   -0.55823E-01   -0.61635E-03  8240   0.611E-01    0.574E+00
DAV:   3    -0.132326277693E+04    0.52134E-01   -0.76564E-03  7528   0.622E-01    0.987E-01
DAV:   4    -0.132326030362E+04    0.24733E-02   -0.17753E-03  7608   0.221E-01    0.682E-01
DAV:   5    -0.132326123563E+04   -0.93201E-03   -0.18033E-03  8344   0.228E-01    0.857E-01
DAV:   6    -0.132326088386E+04    0.35177E-03   -0.14692E-03  7752   0.229E-01    0.818E-01
DAV:   7    -0.132325959588E+04    0.12880E-02   -0.92786E-04  7248   0.168E-01    0.431E-01
DAV:   8    -0.132325914917E+04    0.44671E-03   -0.28626E-04  6856   0.926E-02    0.160E-01
DAV:   9    -0.132325911906E+04    0.30114E-04   -0.11009E-04  7016   0.452E-02    0.143E-01
DAV:  10    -0.132325913762E+04   -0.18563E-04   -0.83137E-05  6680   0.425E-02    0.152E-01
DAV:  11    -0.132325910713E+04    0.30494E-04   -0.55984E-05  6472   0.401E-02    0.972E-02
DAV:  12    -0.132325908522E+04    0.21903E-04   -0.22325E-05  4520   0.262E-02    0.595E-02
DAV:  13    -0.132325908219E+04    0.30389E-05   -0.69076E-06  3248   0.123E-02
  28 F= -.14220788E+04 E0= -.14213972E+04  d E =-.788565E-04
 curvature:  -1.32 expect dE=-0.201E-04 dE for cont linesearch -0.231E-05
 trial: gam= 0.33619 g(F)=  0.152E-04 g(S)=  0.000E+00 ort = 0.815E-05 (trialstep = 0.429E+01)
 search vector abs. value=  0.250E-04
 reached required accuracy - stopping structural energy minimisation
