<?xml version="1.0" encoding="ISO-8859-1"?>
<modeling>
 <generator>
  <i name="program" type="string">vasp </i>
  <i name="version" type="string">6.2.1  </i>
  <i name="subversion" type="string">16May21 (build Jun 16 2021 03:23:30) complex                          parallel </i>
  <i name="platform" type="string">LinuxPGI </i>
  <i name="date" type="string">2022 04 25 </i>
  <i name="time" type="string">11:32:55 </i>
 </generator>
 <incar>
  <i type="string" name="SYSTEM">NiAl</i>
  <i type="int" name="ISTART">     0</i>
  <i type="int" name="NELMIN">     6</i>
  <i type="int" name="IBRION">     2</i>
  <i name="EDIFF">      0.00000500</i>
  <i type="int" name="NSW">    40</i>
  <i type="int" name="ISIF">     1</i>
  <i name="ENCUT">    360.00000000</i>
  <i name="POTIM">      0.20000000</i>
  <i type="string" name="LREAL">Auto</i>
  <i type="logical" name="LPLANE"> T  </i>
  <i type="int" name="ISMEAR">     0</i>
  <i name="SIGMA">      0.05000000</i>
  <i type="logical" name="LWAVE"> F  </i>
  <i type="logical" name="LCHARG"> F  </i>
  <i type="int" name="IVDW">    12</i>
 </incar>
 <primitive_cell>
  <structure name="primitive_cell" >
   <crystal>
    <varray name="basis" >
     <v>       0.00000000     -15.14622176       0.00000000 </v>
     <v>       0.00000000      -7.57311088     -13.11701281 </v>
     <v>      29.00000000       0.00000000       0.00000000 </v>
    </varray>
    <i name="volume">   5761.52236213 </i>
    <varray name="rec_basis" >
     <v>       0.00000000      -0.06602307       0.03811843 </v>
     <v>       0.00000000       0.00000000      -0.07623687 </v>
     <v>       0.03448276       0.00000000       0.00000000 </v>
    </varray>
   </crystal>
   <varray name="positions" >
    <v>       0.44444444       0.44444444       0.10434507 </v>
    <v>       0.44444444       0.77777778       0.10434507 </v>
    <v>       0.44444444       0.11111111       0.10434507 </v>
    <v>       0.77777778       0.44444444       0.10434507 </v>
    <v>       0.77777778       0.77777778       0.10434507 </v>
    <v>       0.77777778       0.11111111       0.10434507 </v>
    <v>       0.11111111       0.44444444       0.10434507 </v>
    <v>       0.11111111       0.77777778       0.10434507 </v>
    <v>       0.11111111       0.11111111       0.10434507 </v>
    <v>       0.55555556       0.55555556       0.17318538 </v>
    <v>       0.55555556       0.88888889       0.17318538 </v>
    <v>       0.55555556       0.22222222       0.17318538 </v>
    <v>       0.88888889       0.55555556       0.17318538 </v>
    <v>       0.88888889       0.88888889       0.17318538 </v>
    <v>       0.88888889       0.22222222       0.17318538 </v>
    <v>       0.22222222       0.55555556       0.17318538 </v>
    <v>       0.22222222       0.88888889       0.17318538 </v>
    <v>       0.22222222       0.22222222       0.17318538 </v>
    <v>       0.66666667       0.66666667       0.24249888 </v>
    <v>       0.66666667       0.00000000       0.24249888 </v>
    <v>       0.66666667       0.33333333       0.24249888 </v>
    <v>       1.00000000       0.66666667       0.24249888 </v>
    <v>       0.00000000       0.00000000       0.24249888 </v>
    <v>       1.00000000       0.33333333       0.24249888 </v>
    <v>       0.33333333       0.66666667       0.24249888 </v>
    <v>       0.33333333       0.00000000       0.24249888 </v>
    <v>       0.33333333       0.33333333       0.24249888 </v>
    <v>       0.77777778       0.77777778       0.31173066 </v>
    <v>       0.77777778       0.11111111       0.31173066 </v>
    <v>       0.77777778       0.44444444       0.31173066 </v>
    <v>       0.11111111       0.77777778       0.31173066 </v>
    <v>       0.11111111       0.11111111       0.31173066 </v>
    <v>       0.11111111       0.44444444       0.31173066 </v>
    <v>       0.44444444       0.77777778       0.31173066 </v>
    <v>       0.44444444       0.11111111       0.31173066 </v>
    <v>       0.44444444       0.44444444       0.31173066 </v>
    <v>       0.88888889       0.88888889       0.38096243 </v>
    <v>       0.88888889       0.22222222       0.38096243 </v>
    <v>       0.88888889       0.55555556       0.38096243 </v>
    <v>       0.22222222       0.88888889       0.38096243 </v>
    <v>       0.22222222       0.22222222       0.38096243 </v>
    <v>       0.22222222       0.55555556       0.38096243 </v>
    <v>       0.55555556       0.88888889       0.38096243 </v>
    <v>       0.55555556       0.22222222       0.38096243 </v>
    <v>       0.55555556       0.55555556       0.38096243 </v>
    <v>       0.00000000       0.00000000       0.45027593 </v>
    <v>       1.00000000       0.33333333       0.45027593 </v>
    <v>       1.00000000       0.66666667       0.45027593 </v>
    <v>       0.33333333       0.00000000       0.45027593 </v>
    <v>       0.33333333       0.33333333       0.45027593 </v>
    <v>       0.33333333       0.66666667       0.45027593 </v>
    <v>       0.66666667       0.00000000       0.45027593 </v>
    <v>       0.66666667       0.33333333       0.45027593 </v>
    <v>       0.66666667       0.66666667       0.45027593 </v>
    <v>       0.11111111       0.11111111       0.51911624 </v>
    <v>       0.11111111       0.44444444       0.51911624 </v>
    <v>       0.11111111       0.77777778       0.51911624 </v>
    <v>       0.44444444       0.11111111       0.51911624 </v>
    <v>       0.44444444       0.44444444       0.51911624 </v>
    <v>       0.44444444       0.77777778       0.51911624 </v>
    <v>       0.77777778       0.11111111       0.51911624 </v>
    <v>       0.77777778       0.44444444       0.51911624 </v>
    <v>       0.77777778       0.77777778       0.51911624 </v>
    <v>       0.27777778       0.27777778       0.10434507 </v>
    <v>       0.27777778       0.61111111       0.10434507 </v>
    <v>       0.27777778       0.94444444       0.10434507 </v>
    <v>       0.61111111       0.27777778       0.10434507 </v>
    <v>       0.61111111       0.61111111       0.10434507 </v>
    <v>       0.61111111       0.94444444       0.10434507 </v>
    <v>       0.94444444       0.27777778       0.10434507 </v>
    <v>       0.94444444       0.61111111       0.10434507 </v>
    <v>       0.94444444       0.94444444       0.10434507 </v>
    <v>       0.38888889       0.38888889       0.17318538 </v>
    <v>       0.38888889       0.72222222       0.17318538 </v>
    <v>       0.38888889       0.05555556       0.17318538 </v>
    <v>       0.72222222       0.38888889       0.17318538 </v>
    <v>       0.72222222       0.72222222       0.17318538 </v>
    <v>       0.72222222       0.05555556       0.17318538 </v>
    <v>       0.05555556       0.38888889       0.17318538 </v>
    <v>       0.05555556       0.72222222       0.17318538 </v>
    <v>       0.05555556       0.05555556       0.17318538 </v>
    <v>       0.50000000       0.50000000       0.24249888 </v>
    <v>       0.50000000       0.83333333       0.24249888 </v>
    <v>       0.50000000       0.16666667       0.24249888 </v>
    <v>       0.83333333       0.50000000       0.24249888 </v>
    <v>       0.83333333       0.83333333       0.24249888 </v>
    <v>       0.83333333       0.16666667       0.24249888 </v>
    <v>       0.16666667       0.50000000       0.24249888 </v>
    <v>       0.16666667       0.83333333       0.24249888 </v>
    <v>       0.16666667       0.16666667       0.24249888 </v>
    <v>       0.61111111       0.61111111       0.31173066 </v>
    <v>       0.61111111       0.94444444       0.31173066 </v>
    <v>       0.61111111       0.27777778       0.31173066 </v>
    <v>       0.94444444       0.61111111       0.31173066 </v>
    <v>       0.94444444       0.94444444       0.31173066 </v>
    <v>       0.94444444       0.27777778       0.31173066 </v>
    <v>       0.27777778       0.61111111       0.31173066 </v>
    <v>       0.27777778       0.94444444       0.31173066 </v>
    <v>       0.27777778       0.27777778       0.31173066 </v>
    <v>       0.72222222       0.72222222       0.38096243 </v>
    <v>       0.72222222       0.05555556       0.38096243 </v>
    <v>       0.72222222       0.38888889       0.38096243 </v>
    <v>       0.05555556       0.72222222       0.38096243 </v>
    <v>       0.05555556       0.05555556       0.38096243 </v>
    <v>       0.05555556       0.38888889       0.38096243 </v>
    <v>       0.38888889       0.72222222       0.38096243 </v>
    <v>       0.38888889       0.05555556       0.38096243 </v>
    <v>       0.38888889       0.38888889       0.38096243 </v>
    <v>       0.83333333       0.83333333       0.45027593 </v>
    <v>       0.83333333       0.16666667       0.45027593 </v>
    <v>       0.83333333       0.50000000       0.45027593 </v>
    <v>       0.16666667       0.83333333       0.45027593 </v>
    <v>       0.16666667       0.16666667       0.45027593 </v>
    <v>       0.16666667       0.50000000       0.45027593 </v>
    <v>       0.50000000       0.83333333       0.45027593 </v>
    <v>       0.50000000       0.16666667       0.45027593 </v>
    <v>       0.50000000       0.50000000       0.45027593 </v>
    <v>       0.94444444       0.94444444       0.51911624 </v>
    <v>       0.94444444       0.27777778       0.51911624 </v>
    <v>       0.94444444       0.61111111       0.51911624 </v>
    <v>       0.27777778       0.94444444       0.51911624 </v>
    <v>       0.27777778       0.27777778       0.51911624 </v>
    <v>       0.27777778       0.61111111       0.51911624 </v>
    <v>       0.61111111       0.94444444       0.51911624 </v>
    <v>       0.61111111       0.27777778       0.51911624 </v>
    <v>       0.61111111       0.61111111       0.51911624 </v>
    <v>       0.27777778       0.44444444       0.10434507 </v>
    <v>       0.27777778       0.77777778       0.10434507 </v>
    <v>       0.27777778       0.11111111       0.10434507 </v>
    <v>       0.61111111       0.44444444       0.10434507 </v>
    <v>       0.61111111       0.77777778       0.10434507 </v>
    <v>       0.61111111       0.11111111       0.10434507 </v>
    <v>       0.94444444       0.44444444       0.10434507 </v>
    <v>       0.94444444       0.77777778       0.10434507 </v>
    <v>       0.94444444       0.11111111       0.10434507 </v>
    <v>       0.38888889       0.55555556       0.17318538 </v>
    <v>       0.38888889       0.88888889       0.17318538 </v>
    <v>       0.38888889       0.22222222       0.17318538 </v>
    <v>       0.72222222       0.55555556       0.17318538 </v>
    <v>       0.72222222       0.88888889       0.17318538 </v>
    <v>       0.72222222       0.22222222       0.17318538 </v>
    <v>       0.05555556       0.55555556       0.17318538 </v>
    <v>       0.05555556       0.88888889       0.17318538 </v>
    <v>       0.05555556       0.22222222       0.17318538 </v>
    <v>       0.50000000       0.66666667       0.24249888 </v>
    <v>       0.50000000       0.00000000       0.24249888 </v>
    <v>       0.50000000       0.33333333       0.24249888 </v>
    <v>       0.83333333       0.66666667       0.24249888 </v>
    <v>       0.83333333       0.00000000       0.24249888 </v>
    <v>       0.83333333       0.33333333       0.24249888 </v>
    <v>       0.16666667       0.66666667       0.24249888 </v>
    <v>       0.16666667       0.00000000       0.24249888 </v>
    <v>       0.16666667       0.33333333       0.24249888 </v>
    <v>       0.61111111       0.77777778       0.31173066 </v>
    <v>       0.61111111       0.11111111       0.31173066 </v>
    <v>       0.61111111       0.44444444       0.31173066 </v>
    <v>       0.94444444       0.77777778       0.31173066 </v>
    <v>       0.94444444       0.11111111       0.31173066 </v>
    <v>       0.94444444       0.44444444       0.31173066 </v>
    <v>       0.27777778       0.77777778       0.31173066 </v>
    <v>       0.27777778       0.11111111       0.31173066 </v>
    <v>       0.27777778       0.44444444       0.31173066 </v>
    <v>       0.72222222       0.88888889       0.38096243 </v>
    <v>       0.72222222       0.22222222       0.38096243 </v>
    <v>       0.72222222       0.55555556       0.38096243 </v>
    <v>       0.05555556       0.88888889       0.38096243 </v>
    <v>       0.05555556       0.22222222       0.38096243 </v>
    <v>       0.05555556       0.55555556       0.38096243 </v>
    <v>       0.38888889       0.88888889       0.38096243 </v>
    <v>       0.38888889       0.22222222       0.38096243 </v>
    <v>       0.38888889       0.55555556       0.38096243 </v>
    <v>       0.83333333       0.00000000       0.45027593 </v>
    <v>       0.83333333       0.33333333       0.45027593 </v>
    <v>       0.83333333       0.66666667       0.45027593 </v>
    <v>       0.16666667       0.00000000       0.45027593 </v>
    <v>       0.16666667       0.33333333       0.45027593 </v>
    <v>       0.16666667       0.66666667       0.45027593 </v>
    <v>       0.50000000       0.00000000       0.45027593 </v>
    <v>       0.50000000       0.33333333       0.45027593 </v>
    <v>       0.50000000       0.66666667       0.45027593 </v>
    <v>       0.94444444       0.11111111       0.51911624 </v>
    <v>       0.94444444       0.44444444       0.51911624 </v>
    <v>       0.94444444       0.77777778       0.51911624 </v>
    <v>       0.27777778       0.11111111       0.51911624 </v>
    <v>       0.27777778       0.44444444       0.51911624 </v>
    <v>       0.27777778       0.77777778       0.51911624 </v>
    <v>       0.61111111       0.11111111       0.51911624 </v>
    <v>       0.61111111       0.44444444       0.51911624 </v>
    <v>       0.61111111       0.77777778       0.51911624 </v>
    <v>       0.44444444       0.27777778       0.10434507 </v>
    <v>       0.44444444       0.61111111       0.10434507 </v>
    <v>       0.44444444       0.94444444       0.10434507 </v>
    <v>       0.77777778       0.27777778       0.10434507 </v>
    <v>       0.77777778       0.61111111       0.10434507 </v>
    <v>       0.77777778       0.94444444       0.10434507 </v>
    <v>       0.11111111       0.27777778       0.10434507 </v>
    <v>       0.11111111       0.61111111       0.10434507 </v>
    <v>       0.11111111       0.94444444       0.10434507 </v>
    <v>       0.55555556       0.38888889       0.17318538 </v>
    <v>       0.55555556       0.72222222       0.17318538 </v>
    <v>       0.55555556       0.05555556       0.17318538 </v>
    <v>       0.88888889       0.38888889       0.17318538 </v>
    <v>       0.88888889       0.72222222       0.17318538 </v>
    <v>       0.88888889       0.05555556       0.17318538 </v>
    <v>       0.22222222       0.38888889       0.17318538 </v>
    <v>       0.22222222       0.72222222       0.17318538 </v>
    <v>       0.22222222       0.05555556       0.17318538 </v>
    <v>       0.66666667       0.50000000       0.24249888 </v>
    <v>       0.66666667       0.83333333       0.24249888 </v>
    <v>       0.66666667       0.16666667       0.24249888 </v>
    <v>       1.00000000       0.50000000       0.24249888 </v>
    <v>       1.00000000       0.83333333       0.24249888 </v>
    <v>       1.00000000       0.16666667       0.24249888 </v>
    <v>       0.33333333       0.50000000       0.24249888 </v>
    <v>       0.33333333       0.83333333       0.24249888 </v>
    <v>       0.33333333       0.16666667       0.24249888 </v>
    <v>       0.77777778       0.61111111       0.31173066 </v>
    <v>       0.77777778       0.94444444       0.31173066 </v>
    <v>       0.77777778       0.27777778       0.31173066 </v>
    <v>       0.11111111       0.61111111       0.31173066 </v>
    <v>       0.11111111       0.94444444       0.31173066 </v>
    <v>       0.11111111       0.27777778       0.31173066 </v>
    <v>       0.44444444       0.61111111       0.31173066 </v>
    <v>       0.44444444       0.94444444       0.31173066 </v>
    <v>       0.44444444       0.27777778       0.31173066 </v>
    <v>       0.88888889       0.72222222       0.38096243 </v>
    <v>       0.88888889       0.05555556       0.38096243 </v>
    <v>       0.88888889       0.38888889       0.38096243 </v>
    <v>       0.22222222       0.72222222       0.38096243 </v>
    <v>       0.22222222       0.05555556       0.38096243 </v>
    <v>       0.22222222       0.38888889       0.38096243 </v>
    <v>       0.55555556       0.72222222       0.38096243 </v>
    <v>       0.55555556       0.05555556       0.38096243 </v>
    <v>       0.55555556       0.38888889       0.38096243 </v>
    <v>       1.00000000       0.83333333       0.45027593 </v>
    <v>       1.00000000       0.16666667       0.45027593 </v>
    <v>       1.00000000       0.50000000       0.45027593 </v>
    <v>       0.33333333       0.83333333       0.45027593 </v>
    <v>       0.33333333       0.16666667       0.45027593 </v>
    <v>       0.33333333       0.50000000       0.45027593 </v>
    <v>       0.66666667       0.83333333       0.45027593 </v>
    <v>       0.66666667       0.16666667       0.45027593 </v>
    <v>       0.66666667       0.50000000       0.45027593 </v>
    <v>       0.11111111       0.94444444       0.51911624 </v>
    <v>       0.11111111       0.27777778       0.51911624 </v>
    <v>       0.11111111       0.61111111       0.51911624 </v>
    <v>       0.44444444       0.94444444       0.51911624 </v>
    <v>       0.44444444       0.27777778       0.51911624 </v>
    <v>       0.44444444       0.61111111       0.51911624 </v>
    <v>       0.77777778       0.94444444       0.51911624 </v>
    <v>       0.77777778       0.27777778       0.51911624 </v>
    <v>       0.77777778       0.61111111       0.51911624 </v>
    <v>       0.38888889       0.55555556       0.57000000 </v>
   </varray>
  </structure>
  <varray name="primitive_index" >
   <v type="int" >        1 </v>
   <v type="int" >        2 </v>
   <v type="int" >        3 </v>
   <v type="int" >        4 </v>
   <v type="int" >        5 </v>
   <v type="int" >        6 </v>
   <v type="int" >        7 </v>
   <v type="int" >        8 </v>
   <v type="int" >        9 </v>
   <v type="int" >       10 </v>
   <v type="int" >       11 </v>
   <v type="int" >       12 </v>
   <v type="int" >       13 </v>
   <v type="int" >       14 </v>
   <v type="int" >       15 </v>
   <v type="int" >       16 </v>
   <v type="int" >       17 </v>
   <v type="int" >       18 </v>
   <v type="int" >       19 </v>
   <v type="int" >       20 </v>
   <v type="int" >       21 </v>
   <v type="int" >       22 </v>
   <v type="int" >       23 </v>
   <v type="int" >       24 </v>
   <v type="int" >       25 </v>
   <v type="int" >       26 </v>
   <v type="int" >       27 </v>
   <v type="int" >       28 </v>
   <v type="int" >       29 </v>
   <v type="int" >       30 </v>
   <v type="int" >       31 </v>
   <v type="int" >       32 </v>
   <v type="int" >       33 </v>
   <v type="int" >       34 </v>
   <v type="int" >       35 </v>
   <v type="int" >       36 </v>
   <v type="int" >       37 </v>
   <v type="int" >       38 </v>
   <v type="int" >       39 </v>
   <v type="int" >       40 </v>
   <v type="int" >       41 </v>
   <v type="int" >       42 </v>
   <v type="int" >       43 </v>
   <v type="int" >       44 </v>
   <v type="int" >       45 </v>
   <v type="int" >       46 </v>
   <v type="int" >       47 </v>
   <v type="int" >       48 </v>
   <v type="int" >       49 </v>
   <v type="int" >       50 </v>
   <v type="int" >       51 </v>
   <v type="int" >       52 </v>
   <v type="int" >       53 </v>
   <v type="int" >       54 </v>
   <v type="int" >       55 </v>
   <v type="int" >       56 </v>
   <v type="int" >       57 </v>
   <v type="int" >       58 </v>
   <v type="int" >       59 </v>
   <v type="int" >       60 </v>
   <v type="int" >       61 </v>
   <v type="int" >       62 </v>
   <v type="int" >       63 </v>
   <v type="int" >       64 </v>
   <v type="int" >       65 </v>
   <v type="int" >       66 </v>
   <v type="int" >       67 </v>
   <v type="int" >       68 </v>
   <v type="int" >       69 </v>
   <v type="int" >       70 </v>
   <v type="int" >       71 </v>
   <v type="int" >       72 </v>
   <v type="int" >       73 </v>
   <v type="int" >       74 </v>
   <v type="int" >       75 </v>
   <v type="int" >       76 </v>
   <v type="int" >       77 </v>
   <v type="int" >       78 </v>
   <v type="int" >       79 </v>
   <v type="int" >       80 </v>
   <v type="int" >       81 </v>
   <v type="int" >       82 </v>
   <v type="int" >       83 </v>
   <v type="int" >       84 </v>
   <v type="int" >       85 </v>
   <v type="int" >       86 </v>
   <v type="int" >       87 </v>
   <v type="int" >       88 </v>
   <v type="int" >       89 </v>
   <v type="int" >       90 </v>
   <v type="int" >       91 </v>
   <v type="int" >       92 </v>
   <v type="int" >       93 </v>
   <v type="int" >       94 </v>
   <v type="int" >       95 </v>
   <v type="int" >       96 </v>
   <v type="int" >       97 </v>
   <v type="int" >       98 </v>
   <v type="int" >       99 </v>
   <v type="int" >      100 </v>
   <v type="int" >      101 </v>
   <v type="int" >      102 </v>
   <v type="int" >      103 </v>
   <v type="int" >      104 </v>
   <v type="int" >      105 </v>
   <v type="int" >      106 </v>
   <v type="int" >      107 </v>
   <v type="int" >      108 </v>
   <v type="int" >      109 </v>
   <v type="int" >      110 </v>
   <v type="int" >      111 </v>
   <v type="int" >      112 </v>
   <v type="int" >      113 </v>
   <v type="int" >      114 </v>
   <v type="int" >      115 </v>
   <v type="int" >      116 </v>
   <v type="int" >      117 </v>
   <v type="int" >      118 </v>
   <v type="int" >      119 </v>
   <v type="int" >      120 </v>
   <v type="int" >      121 </v>
   <v type="int" >      122 </v>
   <v type="int" >      123 </v>
   <v type="int" >      124 </v>
   <v type="int" >      125 </v>
   <v type="int" >      126 </v>
   <v type="int" >      127 </v>
   <v type="int" >      128 </v>
   <v type="int" >      129 </v>
   <v type="int" >      130 </v>
   <v type="int" >      131 </v>
   <v type="int" >      132 </v>
   <v type="int" >      133 </v>
   <v type="int" >      134 </v>
   <v type="int" >      135 </v>
   <v type="int" >      136 </v>
   <v type="int" >      137 </v>
   <v type="int" >      138 </v>
   <v type="int" >      139 </v>
   <v type="int" >      140 </v>
   <v type="int" >      141 </v>
   <v type="int" >      142 </v>
   <v type="int" >      143 </v>
   <v type="int" >      144 </v>
   <v type="int" >      145 </v>
   <v type="int" >      146 </v>
   <v type="int" >      147 </v>
   <v type="int" >      148 </v>
   <v type="int" >      149 </v>
   <v type="int" >      150 </v>
   <v type="int" >      151 </v>
   <v type="int" >      152 </v>
   <v type="int" >      153 </v>
   <v type="int" >      154 </v>
   <v type="int" >      155 </v>
   <v type="int" >      156 </v>
   <v type="int" >      157 </v>
   <v type="int" >      158 </v>
   <v type="int" >      159 </v>
   <v type="int" >      160 </v>
   <v type="int" >      161 </v>
   <v type="int" >      162 </v>
   <v type="int" >      163 </v>
   <v type="int" >      164 </v>
   <v type="int" >      165 </v>
   <v type="int" >      166 </v>
   <v type="int" >      167 </v>
   <v type="int" >      168 </v>
   <v type="int" >      169 </v>
   <v type="int" >      170 </v>
   <v type="int" >      171 </v>
   <v type="int" >      172 </v>
   <v type="int" >      173 </v>
   <v type="int" >      174 </v>
   <v type="int" >      175 </v>
   <v type="int" >      176 </v>
   <v type="int" >      177 </v>
   <v type="int" >      178 </v>
   <v type="int" >      179 </v>
   <v type="int" >      180 </v>
   <v type="int" >      181 </v>
   <v type="int" >      182 </v>
   <v type="int" >      183 </v>
   <v type="int" >      184 </v>
   <v type="int" >      185 </v>
   <v type="int" >      186 </v>
   <v type="int" >      187 </v>
   <v type="int" >      188 </v>
   <v type="int" >      189 </v>
   <v type="int" >      190 </v>
   <v type="int" >      191 </v>
   <v type="int" >      192 </v>
   <v type="int" >      193 </v>
   <v type="int" >      194 </v>
   <v type="int" >      195 </v>
   <v type="int" >      196 </v>
   <v type="int" >      197 </v>
   <v type="int" >      198 </v>
   <v type="int" >      199 </v>
   <v type="int" >      200 </v>
   <v type="int" >      201 </v>
   <v type="int" >      202 </v>
   <v type="int" >      203 </v>
   <v type="int" >      204 </v>
   <v type="int" >      205 </v>
   <v type="int" >      206 </v>
   <v type="int" >      207 </v>
   <v type="int" >      208 </v>
   <v type="int" >      209 </v>
   <v type="int" >      210 </v>
   <v type="int" >      211 </v>
   <v type="int" >      212 </v>
   <v type="int" >      213 </v>
   <v type="int" >      214 </v>
   <v type="int" >      215 </v>
   <v type="int" >      216 </v>
   <v type="int" >      217 </v>
   <v type="int" >      218 </v>
   <v type="int" >      219 </v>
   <v type="int" >      220 </v>
   <v type="int" >      221 </v>
   <v type="int" >      222 </v>
   <v type="int" >      223 </v>
   <v type="int" >      224 </v>
   <v type="int" >      225 </v>
   <v type="int" >      226 </v>
   <v type="int" >      227 </v>
   <v type="int" >      228 </v>
   <v type="int" >      229 </v>
   <v type="int" >      230 </v>
   <v type="int" >      231 </v>
   <v type="int" >      232 </v>
   <v type="int" >      233 </v>
   <v type="int" >      234 </v>
   <v type="int" >      235 </v>
   <v type="int" >      236 </v>
   <v type="int" >      237 </v>
   <v type="int" >      238 </v>
   <v type="int" >      239 </v>
   <v type="int" >      240 </v>
   <v type="int" >      241 </v>
   <v type="int" >      242 </v>
   <v type="int" >      243 </v>
   <v type="int" >      244 </v>
   <v type="int" >      245 </v>
   <v type="int" >      246 </v>
   <v type="int" >      247 </v>
   <v type="int" >      248 </v>
   <v type="int" >      249 </v>
   <v type="int" >      250 </v>
   <v type="int" >      251 </v>
   <v type="int" >      252 </v>
   <v type="int" >      253 </v>
  </varray>
 </primitive_cell>
 <kpoints>
  <generation param="Gamma">
   <v type="int" name="divisions">       2        2        1 </v>
   <v name="usershift">      0.00000000       0.00000000       0.00000000 </v>
   <v name="genvec1">      0.50000000      -0.00000000       0.00000000 </v>
   <v name="genvec2">      0.00000000       0.50000000       0.00000000 </v>
   <v name="genvec3">      0.00000000       0.00000000       1.00000000 </v>
   <v name="shift">      0.00000000       0.00000000       0.00000000 </v>
  </generation>
  <varray name="kpointlist" >
   <v>       0.00000000       0.00000000       0.00000000 </v>
   <v>       0.50000000       0.00000000       0.00000000 </v>
  </varray>
  <varray name="weights" >
   <v>       0.25000000 </v>
   <v>       0.75000000 </v>
  </varray>
 </kpoints>
 <parameters>
  <separator name="general" >
   <i type="string" name="SYSTEM">NiAl</i>
   <i type="logical" name="LCOMPAT"> F  </i>
  </separator>
  <separator name="electronic" >
   <i type="string" name="PREC">normal</i>
   <i name="ENMAX">    360.00000000</i>
   <i name="ENAUG">   1139.60900000</i>
   <i name="EDIFF">      0.00000500</i>
   <i type="int" name="IALGO">    38</i>
   <i type="int" name="IWAVPR">    11</i>
   <i type="int" name="NBANDS">  1515</i>
   <i type="int" name="NBANDSLOW">    -1</i>
   <i type="int" name="NBANDSHIGH">    -1</i>
   <i name="NELECT">   2526.00000000</i>
   <i type="int" name="TURBO">     0</i>
   <i type="int" name="IRESTART">     0</i>
   <i type="int" name="NREBOOT">     0</i>
   <i type="int" name="NMIN">     0</i>
   <i name="EREF">      0.00000000</i>
   <separator name="electronic smearing" >
    <i type="int" name="ISMEAR">     0</i>
    <i name="SIGMA">      0.05000000</i>
    <i name="KSPACING">      0.50000000</i>
    <i type="logical" name="KGAMMA"> T  </i>
    <i type="logical" name="KBLOWUP"> T  </i>
   </separator>
   <separator name="electronic projectors" >
    <i type="logical" name="LREAL"> T  </i>
    <v name="ROPT">     -0.00050000     -0.00050000</v>
    <i type="int" name="LMAXPAW">  -100</i>
    <i type="int" name="LMAXMIX">     2</i>
    <i type="logical" name="NLSPLINE"> F  </i>
   </separator>
   <separator name="electronic startup" >
    <i type="int" name="ISTART">     0</i>
    <i type="int" name="ICHARG">     2</i>
    <i type="int" name="INIWAV">     1</i>
   </separator>
   <separator name="electronic spin" >
    <i type="int" name="ISPIN">     1</i>
    <i type="logical" name="LNONCOLLINEAR"> F  </i>
    <v name="MAGMOM">      1.00000000      1.00000000      1.00000000      1.00000000      1.00000000      1.00000000      1.00000000      1.00000000      1.00000000      1.00000000      1.00000000      1.00000000      1.00000000      1.00000000      1.00000000      1.00000000      1.00000000      1.00000000      1.00000000      1.00000000
      1.00000000      1.00000000      1.00000000      1.00000000      1.00000000      1.00000000      1.00000000      1.00000000      1.00000000      1.00000000      1.00000000      1.00000000      1.00000000      1.00000000      1.00000000      1.00000000      1.00000000      1.00000000      1.00000000      1.00000000
      1.00000000      1.00000000      1.00000000      1.00000000      1.00000000      1.00000000      1.00000000      1.00000000      1.00000000      1.00000000      1.00000000      1.00000000      1.00000000      1.00000000      1.00000000      1.00000000      1.00000000      1.00000000      1.00000000      1.00000000
      1.00000000      1.00000000      1.00000000      1.00000000      1.00000000      1.00000000      1.00000000      1.00000000      1.00000000      1.00000000      1.00000000      1.00000000      1.00000000      1.00000000      1.00000000      1.00000000      1.00000000      1.00000000      1.00000000      1.00000000
      1.00000000      1.00000000      1.00000000      1.00000000      1.00000000      1.00000000      1.00000000      1.00000000      1.00000000      1.00000000      1.00000000      1.00000000      1.00000000      1.00000000      1.00000000      1.00000000      1.00000000      1.00000000      1.00000000      1.00000000
      1.00000000      1.00000000      1.00000000      1.00000000      1.00000000      1.00000000      1.00000000      1.00000000      1.00000000      1.00000000      1.00000000      1.00000000      1.00000000      1.00000000      1.00000000      1.00000000      1.00000000      1.00000000      1.00000000      1.00000000
      1.00000000      1.00000000      1.00000000      1.00000000      1.00000000      1.00000000      1.00000000      1.00000000      1.00000000      1.00000000      1.00000000      1.00000000      1.00000000      1.00000000      1.00000000      1.00000000      1.00000000      1.00000000      1.00000000      1.00000000
      1.00000000      1.00000000      1.00000000      1.00000000      1.00000000      1.00000000      1.00000000      1.00000000      1.00000000      1.00000000      1.00000000      1.00000000      1.00000000      1.00000000      1.00000000      1.00000000      1.00000000      1.00000000      1.00000000      1.00000000
      1.00000000      1.00000000      1.00000000      1.00000000      1.00000000      1.00000000      1.00000000      1.00000000      1.00000000      1.00000000      1.00000000      1.00000000      1.00000000      1.00000000      1.00000000      1.00000000      1.00000000      1.00000000      1.00000000      1.00000000
      1.00000000      1.00000000      1.00000000      1.00000000      1.00000000      1.00000000      1.00000000      1.00000000      1.00000000      1.00000000      1.00000000      1.00000000      1.00000000      1.00000000      1.00000000      1.00000000      1.00000000      1.00000000      1.00000000      1.00000000
      1.00000000      1.00000000      1.00000000      1.00000000      1.00000000      1.00000000      1.00000000      1.00000000      1.00000000      1.00000000      1.00000000      1.00000000      1.00000000      1.00000000      1.00000000      1.00000000      1.00000000      1.00000000      1.00000000      1.00000000
      1.00000000      1.00000000      1.00000000      1.00000000      1.00000000      1.00000000      1.00000000      1.00000000      1.00000000      1.00000000      1.00000000      1.00000000      1.00000000      1.00000000      1.00000000      1.00000000      1.00000000      1.00000000      1.00000000      1.00000000
      1.00000000      1.00000000      1.00000000      1.00000000      1.00000000      1.00000000      1.00000000      1.00000000      1.00000000      1.00000000      1.00000000      1.00000000      1.00000000</v>
    <i name="NUPDOWN">     -1.00000000</i>
    <i type="logical" name="LSORBIT"> F  </i>
    <v name="SAXIS">      0.00000000      0.00000000      1.00000000</v>
    <i type="logical" name="LSPIRAL"> F  </i>
    <v name="QSPIRAL">      0.00000000      0.00000000      0.00000000</v>
    <i type="logical" name="LZEROZ"> F  </i>
   </separator>
   <separator name="electronic exchange-correlation" >
    <i type="logical" name="LASPH"> F  </i>
    <i type="logical" name="LMETAGGA"> F  </i>
   </separator>
   <separator name="electronic convergence" >
    <i type="int" name="NELM">    60</i>
    <i type="int" name="NELMDL">    -5</i>
    <i type="int" name="NELMIN">     6</i>
    <i name="ENINI">    360.00000000</i>
    <separator name="electronic convergence detail" >
     <i type="logical" name="LDIAG"> T  </i>
     <i type="logical" name="LSUBROT"> F  </i>
     <i name="WEIMIN">      0.00100000</i>
     <i name="EBREAK">      0.00000000</i>
     <i name="DEPER">      0.30000000</i>
     <i type="int" name="NRMM">     4</i>
     <i name="TIME">      0.40000000</i>
    </separator>
   </separator>
   <separator name="electronic mixer" >
    <i name="AMIX">      0.40000000</i>
    <i name="BMIX">      1.00000000</i>
    <i name="AMIN">      0.10000000</i>
    <i name="AMIX_MAG">      1.60000000</i>
    <i name="BMIX_MAG">      1.00000000</i>
    <separator name="electronic mixer details" >
     <i type="int" name="IMIX">     4</i>
     <i type="logical" name="MIXFIRST"> F  </i>
     <i type="int" name="MAXMIX">   -45</i>
     <i name="WC">    100.00000000</i>
     <i type="int" name="INIMIX">     1</i>
     <i type="int" name="MIXPRE">     1</i>
     <i type="int" name="MREMOVE">     5</i>
    </separator>
   </separator>
   <separator name="electronic dipolcorrection" >
    <i type="logical" name="LDIPOL"> F  </i>
    <i type="logical" name="LMONO"> F  </i>
    <i type="int" name="IDIPOL">     0</i>
    <i name="EPSILON">      1.00000000</i>
    <v name="DIPOL">   -100.00000000   -100.00000000   -100.00000000</v>
    <i name="EFIELD">      0.00000000</i>
   </separator>
  </separator>
  <separator name="grids" >
   <i type="int" name="NGX">    70</i>
   <i type="int" name="NGY">    70</i>
   <i type="int" name="NGZ">   140</i>
   <i type="int" name="NGXF">   140</i>
   <i type="int" name="NGYF">   140</i>
   <i type="int" name="NGZF">   280</i>
   <i type="logical" name="ADDGRID"> F  </i>
  </separator>
  <separator name="ionic" >
   <i type="int" name="NSW">    40</i>
   <i type="int" name="IBRION">     2</i>
   <i type="int" name="MDALGO">     0</i>
   <i type="int" name="ISIF">     1</i>
   <i name="PSTRESS">      0.00000000</i>
   <i name="EDIFFG">      0.00005000</i>
   <i type="int" name="NFREE">     1</i>
   <i name="POTIM">      0.20000000</i>
   <i name="SMASS">     -3.00000000</i>
   <i name="SCALEE">      1.00000000</i>
  </separator>
  <separator name="ionic md" >
   <i name="TEBEG">      0.00010000</i>
   <i name="TEEND">      0.00010000</i>
   <i type="int" name="NBLOCK">     1</i>
   <i type="int" name="KBLOCK">    40</i>
   <i type="int" name="NPACO">   256</i>
   <i name="APACO">     16.00000000</i>
  </separator>
  <separator name="symmetry" >
   <i type="int" name="ISYM">     2</i>
   <i name="SYMPREC">      0.00001000</i>
  </separator>
  <separator name="dos" >
   <i type="int" name="LORBIT">     0</i>
   <v name="RWIGS">     -1.00000000     -1.00000000</v>
   <i type="int" name="NEDOS">   301</i>
   <i name="EMIN">     10.00000000</i>
   <i name="EMAX">    -10.00000000</i>
   <i name="EFERMI">      0.00000000</i>
  </separator>
  <separator name="writing" >
   <i type="int" name="NWRITE">     2</i>
   <i type="logical" name="LWAVE"> F  </i>
   <i type="logical" name="LDOWNSAMPLE"> F  </i>
   <i type="logical" name="LCHARG"> F  </i>
   <i type="logical" name="LPARD"> F  </i>
   <i type="logical" name="LVTOT"> F  </i>
   <i type="logical" name="LVHAR"> F  </i>
   <i type="logical" name="LELF"> F  </i>
   <i type="logical" name="LOPTICS"> F  </i>
   <v name="STM">      0.00000000      0.00000000      0.00000000      0.00000000      0.00000000      0.00000000      0.00000000</v>
  </separator>
  <separator name="performance" >
   <i type="int" name="NPAR">     1</i>
   <i type="int" name="NSIM">     4</i>
   <i type="int" name="NBLK">    -1</i>
   <i type="logical" name="LPLANE"> T  </i>
   <i type="logical" name="LSCALAPACK"> T  </i>
   <i type="logical" name="LSCAAWARE"> F  </i>
   <i type="logical" name="LSCALU"> F  </i>
   <i type="logical" name="LASYNC"> F  </i>
   <i type="logical" name="LORBITALREAL"> F  </i>
  </separator>
  <separator name="miscellaneous" >
   <i type="int" name="IDIOT">     3</i>
   <i type="int" name="PHON_NSTRUCT">    -1</i>
   <i type="logical" name="LMUSIC"> F  </i>
   <v name="POMASS">     58.69000000     16.00000000</v>
   <v name="DARWINR">      0.00000000      0.00000000</v>
   <v name="DARWINV">      1.00000000      1.00000000</v>
   <i type="logical" name="LCORR"> T  </i>
  </separator>
  <i type="logical" name="GGA_COMPAT"> T  </i>
  <i type="logical" name="LBERRY"> F  </i>
  <i type="int" name="ICORELEVEL">     0</i>
  <i type="logical" name="LDAU"> F  </i>
  <i type="int" name="I_CONSTRAINED_M">     0</i>
  <separator name="electronic exchange-correlation" >
   <i type="string" name="GGA">--</i>
   <i type="int" name="VOSKOWN">     0</i>
   <i type="logical" name="LHFCALC"> F  </i>
   <i type="string" name="PRECFOCK"></i>
   <i type="logical" name="LSYMGRAD"> F  </i>
   <i type="logical" name="LHFONE"> F  </i>
   <i type="logical" name="LRHFCALC"> F  </i>
   <i type="logical" name="LTHOMAS"> F  </i>
   <i type="logical" name="LMODELHF"> F  </i>
   <i type="logical" name="LFOCKACE"> F  </i>
   <i name="ENCUT4O">     -1.00000000</i>
   <i type="int" name="EXXOEP">     0</i>
   <i type="int" name="FOURORBIT">     0</i>
   <i name="AEXX">      0.00000000</i>
   <i name="HFALPHA">      0.00000000</i>
   <i name="MCALPHA">      0.00000000</i>
   <i name="ALDAX">      1.00000000</i>
   <i name="AGGAX">      1.00000000</i>
   <i name="ALDAC">      1.00000000</i>
   <i name="AGGAC">      1.00000000</i>
   <i type="int" name="NKREDX">     1</i>
   <i type="int" name="NKREDY">     1</i>
   <i type="int" name="NKREDZ">     1</i>
   <i type="logical" name="SHIFTRED"> F  </i>
   <i type="logical" name="ODDONLY"> F  </i>
   <i type="logical" name="EVENONLY"> F  </i>
   <i type="int" name="LMAXFOCK">     0</i>
   <i type="int" name="NMAXFOCKAE">     0</i>
   <i type="logical" name="LFOCKAEDFT"> F  </i>
   <i name="HFSCREEN">      0.00000000</i>
   <i name="HFSCREENC">      0.00000000</i>
   <i type="int" name="NBANDSGWLOW">     0</i>
  </separator>
  <separator name="vdW DFT" >
   <i type="logical" name="LUSE_VDW"> F  </i>
   <i name="Zab_VDW">     -0.84910000</i>
   <i name="PARAM1">      0.12340000</i>
   <i name="PARAM2">      1.00000000</i>
   <i name="PARAM3">      0.00000000</i>
  </separator>
  <separator name="model GW" >
   <i type="int" name="MODEL_GW">     0</i>
   <i name="MODEL_EPS0">     13.66368940</i>
   <i name="MODEL_ALPHA">      1.00000000</i>
  </separator>
  <separator name="linear response parameters" >
   <i type="logical" name="LEPSILON"> F  </i>
   <i type="logical" name="LRPA"> F  </i>
   <i type="logical" name="LNABLA"> F  </i>
   <i type="logical" name="LVEL"> F  </i>
   <i type="int" name="KINTER">     0</i>
   <i name="CSHIFT">      0.10000000</i>
   <i name="OMEGAMAX">     -1.00000000</i>
   <i name="DEG_THRESHOLD">      0.00200000</i>
   <i name="RTIME">     -0.10000000</i>
   <i name="WPLASMAI">      0.00000000</i>
   <v name="DFIELD">      0.00000000      0.00000000      0.00000000</v>
   <v name="WPLASMA">      0.00000000      0.00000000      0.00000000      0.00000000      0.00000000      0.00000000      0.00000000      0.00000000      0.00000000</v>
  </separator>
  <separator name="orbital magnetization" >
   <i type="logical" name="NUCIND"> F  </i>
   <v name="MAGPOS">      0.00000000      0.00000000      0.00000000</v>
   <i type="logical" name="LNICSALL"> T  </i>
   <i type="logical" name="ORBITALMAG"> F  </i>
   <i type="logical" name="LMAGBLOCH"> F  </i>
   <i type="logical" name="LCHIMAG"> F  </i>
   <i type="logical" name="LGAUGE"> T  </i>
   <i type="int" name="MAGATOM">     0</i>
   <v name="MAGDIPOL">      0.00000000      0.00000000      0.00000000</v>
   <v name="AVECCONST">      0.00000000      0.00000000      0.00000000</v>
  </separator>
  <separator name="response functions" >
   <i type="logical" name="LFINITE_TEMPERATURE"> F  </i>
   <i type="logical" name="LADDER"> F  </i>
   <i type="logical" name="LRPAFORCE"> F  </i>
   <i type="logical" name="LFXC"> F  </i>
   <i type="logical" name="LHARTREE"> T  </i>
   <i type="int" name="IBSE">     0</i>
   <v type="int" name="KPOINT">    -1     0     0     0</v>
   <i type="logical" name="LTCTC"> F  </i>
   <i type="logical" name="LTCTE"> F  </i>
   <i type="logical" name="LTETE"> F  </i>
   <i type="logical" name="LTRIPLET"> F  </i>
   <i type="logical" name="LFXCEPS"> F  </i>
   <i type="logical" name="LFXHEG"> F  </i>
   <i type="int" name="NATURALO">     2</i>
   <i type="logical" name="LHOLEGF"> F  </i>
   <i type="logical" name="L2ORDER"> F  </i>
   <i type="logical" name="LDMP1"> F  </i>
   <i type="logical" name="LMP2LT"> F  </i>
   <i type="logical" name="LSMP2LT"> F  </i>
   <i type="logical" name="LGWLF"> F  </i>
   <i name="ENCUTGW">     -2.00000000</i>
   <i name="ENCUTGWSOFT">     -2.00000000</i>
   <i name="ENCUTLF">     -1.00000000</i>
   <i type="logical" name="LESF_SPLINES"> F  </i>
   <i type="int" name="LMAXMP2">    -1</i>
   <i name="SCISSOR">      0.00000000</i>
   <i type="int" name="NOMEGA">     0</i>
   <i type="int" name="NOMEGAR">     0</i>
   <i type="int" name="NBANDSGW">    -1</i>
   <i type="int" name="NBANDSO">    -1</i>
   <i type="int" name="NBANDSV">    -1</i>
   <i type="int" name="NELM">     1</i>
   <i type="int" name="NELMHF">     1</i>
   <i type="int" name="DIM">     3</i>
   <i type="int" name="IESPILON">     4</i>
   <i type="int" name="ANTIRES">     0</i>
   <i name="OMEGAMAX">    -30.00000000</i>
   <i name="OMEGAMIN">    -30.00000000</i>
   <i name="OMEGATL">   -200.00000000</i>
   <i type="int" name="OMEGAGRID">     0</i>
   <i name="CSHIFT">     -0.10000000</i>
   <i type="logical" name="LSELFENERGY"> F  </i>
   <i type="logical" name="LSPECTRAL"> F  </i>
   <i type="logical" name="LSPECTRALGW"> F  </i>
   <i type="logical" name="LSINGLES"> F  </i>
   <i type="logical" name="LFERMIGW"> F  </i>
   <i type="logical" name="ODDONLYGW"> F  </i>
   <i type="logical" name="EVENONLYGW"> F  </i>
   <i type="int" name="NKREDLFX">     1</i>
   <i type="int" name="NKREDLFY">     1</i>
   <i type="int" name="NKREDLFZ">     1</i>
   <i type="int" name="MAXMEM">  2800</i>
   <i type="int" name="TELESCOPE">     0</i>
   <i type="int" name="NTAUPAR">    -1</i>
   <i type="int" name="NOMEGAPAR">    -1</i>
   <i name="DAMP_NEWTON">      0.80000001</i>
   <i name="LAMBDA">      1.00000000</i>
  </separator>
  <separator name="External order field" >
   <i name="OFIELD_KAPPA">      0.00000000</i>
   <v name="OFIELD_K">      0.00000000      0.00000000      0.00000000</v>
   <i name="OFIELD_Q6_NEAR">      0.00000000</i>
   <i name="OFIELD_Q6_FAR">      0.00000000</i>
   <i name="OFIELD_A">      0.00000000</i>
  </separator>
  <separator name="solvation model" >
   <i type="logical" name="LSOL"> F  </i>
  </separator>
 </parameters>
 <atominfo>
  <atoms>     253 </atoms>
  <types>       2 </types>
  <array name="atoms" >
   <dimension dim="1">ion</dimension>
   <field type="string">element</field>
   <field type="int">atomtype</field>
   <set>
    <rc><c>Ni</c><c>   1</c></rc>
    <rc><c>Ni</c><c>   1</c></rc>
    <rc><c>Ni</c><c>   1</c></rc>
    <rc><c>Ni</c><c>   1</c></rc>
    <rc><c>Ni</c><c>   1</c></rc>
    <rc><c>Ni</c><c>   1</c></rc>
    <rc><c>Ni</c><c>   1</c></rc>
    <rc><c>Ni</c><c>   1</c></rc>
    <rc><c>Ni</c><c>   1</c></rc>
    <rc><c>Ni</c><c>   1</c></rc>
    <rc><c>Ni</c><c>   1</c></rc>
    <rc><c>Ni</c><c>   1</c></rc>
    <rc><c>Ni</c><c>   1</c></rc>
    <rc><c>Ni</c><c>   1</c></rc>
    <rc><c>Ni</c><c>   1</c></rc>
    <rc><c>Ni</c><c>   1</c></rc>
    <rc><c>Ni</c><c>   1</c></rc>
    <rc><c>Ni</c><c>   1</c></rc>
    <rc><c>Ni</c><c>   1</c></rc>
    <rc><c>Ni</c><c>   1</c></rc>
    <rc><c>Ni</c><c>   1</c></rc>
    <rc><c>Ni</c><c>   1</c></rc>
    <rc><c>Ni</c><c>   1</c></rc>
    <rc><c>Ni</c><c>   1</c></rc>
    <rc><c>Ni</c><c>   1</c></rc>
    <rc><c>Ni</c><c>   1</c></rc>
    <rc><c>Ni</c><c>   1</c></rc>
    <rc><c>Ni</c><c>   1</c></rc>
    <rc><c>Ni</c><c>   1</c></rc>
    <rc><c>Ni</c><c>   1</c></rc>
    <rc><c>Ni</c><c>   1</c></rc>
    <rc><c>Ni</c><c>   1</c></rc>
    <rc><c>Ni</c><c>   1</c></rc>
    <rc><c>Ni</c><c>   1</c></rc>
    <rc><c>Ni</c><c>   1</c></rc>
    <rc><c>Ni</c><c>   1</c></rc>
    <rc><c>Ni</c><c>   1</c></rc>
    <rc><c>Ni</c><c>   1</c></rc>
    <rc><c>Ni</c><c>   1</c></rc>
    <rc><c>Ni</c><c>   1</c></rc>
    <rc><c>Ni</c><c>   1</c></rc>
    <rc><c>Ni</c><c>   1</c></rc>
    <rc><c>Ni</c><c>   1</c></rc>
    <rc><c>Ni</c><c>   1</c></rc>
    <rc><c>Ni</c><c>   1</c></rc>
    <rc><c>Ni</c><c>   1</c></rc>
    <rc><c>Ni</c><c>   1</c></rc>
    <rc><c>Ni</c><c>   1</c></rc>
    <rc><c>Ni</c><c>   1</c></rc>
    <rc><c>Ni</c><c>   1</c></rc>
    <rc><c>Ni</c><c>   1</c></rc>
    <rc><c>Ni</c><c>   1</c></rc>
    <rc><c>Ni</c><c>   1</c></rc>
    <rc><c>Ni</c><c>   1</c></rc>
    <rc><c>Ni</c><c>   1</c></rc>
    <rc><c>Ni</c><c>   1</c></rc>
    <rc><c>Ni</c><c>   1</c></rc>
    <rc><c>Ni</c><c>   1</c></rc>
    <rc><c>Ni</c><c>   1</c></rc>
    <rc><c>Ni</c><c>   1</c></rc>
    <rc><c>Ni</c><c>   1</c></rc>
    <rc><c>Ni</c><c>   1</c></rc>
    <rc><c>Ni</c><c>   1</c></rc>
    <rc><c>Ni</c><c>   1</c></rc>
    <rc><c>Ni</c><c>   1</c></rc>
    <rc><c>Ni</c><c>   1</c></rc>
    <rc><c>Ni</c><c>   1</c></rc>
    <rc><c>Ni</c><c>   1</c></rc>
    <rc><c>Ni</c><c>   1</c></rc>
    <rc><c>Ni</c><c>   1</c></rc>
    <rc><c>Ni</c><c>   1</c></rc>
    <rc><c>Ni</c><c>   1</c></rc>
    <rc><c>Ni</c><c>   1</c></rc>
    <rc><c>Ni</c><c>   1</c></rc>
    <rc><c>Ni</c><c>   1</c></rc>
    <rc><c>Ni</c><c>   1</c></rc>
    <rc><c>Ni</c><c>   1</c></rc>
    <rc><c>Ni</c><c>   1</c></rc>
    <rc><c>Ni</c><c>   1</c></rc>
    <rc><c>Ni</c><c>   1</c></rc>
    <rc><c>Ni</c><c>   1</c></rc>
    <rc><c>Ni</c><c>   1</c></rc>
    <rc><c>Ni</c><c>   1</c></rc>
    <rc><c>Ni</c><c>   1</c></rc>
    <rc><c>Ni</c><c>   1</c></rc>
    <rc><c>Ni</c><c>   1</c></rc>
    <rc><c>Ni</c><c>   1</c></rc>
    <rc><c>Ni</c><c>   1</c></rc>
    <rc><c>Ni</c><c>   1</c></rc>
    <rc><c>Ni</c><c>   1</c></rc>
    <rc><c>Ni</c><c>   1</c></rc>
    <rc><c>Ni</c><c>   1</c></rc>
    <rc><c>Ni</c><c>   1</c></rc>
    <rc><c>Ni</c><c>   1</c></rc>
    <rc><c>Ni</c><c>   1</c></rc>
    <rc><c>Ni</c><c>   1</c></rc>
    <rc><c>Ni</c><c>   1</c></rc>
    <rc><c>Ni</c><c>   1</c></rc>
    <rc><c>Ni</c><c>   1</c></rc>
    <rc><c>Ni</c><c>   1</c></rc>
    <rc><c>Ni</c><c>   1</c></rc>
    <rc><c>Ni</c><c>   1</c></rc>
    <rc><c>Ni</c><c>   1</c></rc>
    <rc><c>Ni</c><c>   1</c></rc>
    <rc><c>Ni</c><c>   1</c></rc>
    <rc><c>Ni</c><c>   1</c></rc>
    <rc><c>Ni</c><c>   1</c></rc>
    <rc><c>Ni</c><c>   1</c></rc>
    <rc><c>Ni</c><c>   1</c></rc>
    <rc><c>Ni</c><c>   1</c></rc>
    <rc><c>Ni</c><c>   1</c></rc>
    <rc><c>Ni</c><c>   1</c></rc>
    <rc><c>Ni</c><c>   1</c></rc>
    <rc><c>Ni</c><c>   1</c></rc>
    <rc><c>Ni</c><c>   1</c></rc>
    <rc><c>Ni</c><c>   1</c></rc>
    <rc><c>Ni</c><c>   1</c></rc>
    <rc><c>Ni</c><c>   1</c></rc>
    <rc><c>Ni</c><c>   1</c></rc>
    <rc><c>Ni</c><c>   1</c></rc>
    <rc><c>Ni</c><c>   1</c></rc>
    <rc><c>Ni</c><c>   1</c></rc>
    <rc><c>Ni</c><c>   1</c></rc>
    <rc><c>Ni</c><c>   1</c></rc>
    <rc><c>Ni</c><c>   1</c></rc>
    <rc><c>Ni</c><c>   1</c></rc>
    <rc><c>Ni</c><c>   1</c></rc>
    <rc><c>Ni</c><c>   1</c></rc>
    <rc><c>Ni</c><c>   1</c></rc>
    <rc><c>Ni</c><c>   1</c></rc>
    <rc><c>Ni</c><c>   1</c></rc>
    <rc><c>Ni</c><c>   1</c></rc>
    <rc><c>Ni</c><c>   1</c></rc>
    <rc><c>Ni</c><c>   1</c></rc>
    <rc><c>Ni</c><c>   1</c></rc>
    <rc><c>Ni</c><c>   1</c></rc>
    <rc><c>Ni</c><c>   1</c></rc>
    <rc><c>Ni</c><c>   1</c></rc>
    <rc><c>Ni</c><c>   1</c></rc>
    <rc><c>Ni</c><c>   1</c></rc>
    <rc><c>Ni</c><c>   1</c></rc>
    <rc><c>Ni</c><c>   1</c></rc>
    <rc><c>Ni</c><c>   1</c></rc>
    <rc><c>Ni</c><c>   1</c></rc>
    <rc><c>Ni</c><c>   1</c></rc>
    <rc><c>Ni</c><c>   1</c></rc>
    <rc><c>Ni</c><c>   1</c></rc>
    <rc><c>Ni</c><c>   1</c></rc>
    <rc><c>Ni</c><c>   1</c></rc>
    <rc><c>Ni</c><c>   1</c></rc>
    <rc><c>Ni</c><c>   1</c></rc>
    <rc><c>Ni</c><c>   1</c></rc>
    <rc><c>Ni</c><c>   1</c></rc>
    <rc><c>Ni</c><c>   1</c></rc>
    <rc><c>Ni</c><c>   1</c></rc>
    <rc><c>Ni</c><c>   1</c></rc>
    <rc><c>Ni</c><c>   1</c></rc>
    <rc><c>Ni</c><c>   1</c></rc>
    <rc><c>Ni</c><c>   1</c></rc>
    <rc><c>Ni</c><c>   1</c></rc>
    <rc><c>Ni</c><c>   1</c></rc>
    <rc><c>Ni</c><c>   1</c></rc>
    <rc><c>Ni</c><c>   1</c></rc>
    <rc><c>Ni</c><c>   1</c></rc>
    <rc><c>Ni</c><c>   1</c></rc>
    <rc><c>Ni</c><c>   1</c></rc>
    <rc><c>Ni</c><c>   1</c></rc>
    <rc><c>Ni</c><c>   1</c></rc>
    <rc><c>Ni</c><c>   1</c></rc>
    <rc><c>Ni</c><c>   1</c></rc>
    <rc><c>Ni</c><c>   1</c></rc>
    <rc><c>Ni</c><c>   1</c></rc>
    <rc><c>Ni</c><c>   1</c></rc>
    <rc><c>Ni</c><c>   1</c></rc>
    <rc><c>Ni</c><c>   1</c></rc>
    <rc><c>Ni</c><c>   1</c></rc>
    <rc><c>Ni</c><c>   1</c></rc>
    <rc><c>Ni</c><c>   1</c></rc>
    <rc><c>Ni</c><c>   1</c></rc>
    <rc><c>Ni</c><c>   1</c></rc>
    <rc><c>Ni</c><c>   1</c></rc>
    <rc><c>Ni</c><c>   1</c></rc>
    <rc><c>Ni</c><c>   1</c></rc>
    <rc><c>Ni</c><c>   1</c></rc>
    <rc><c>Ni</c><c>   1</c></rc>
    <rc><c>Ni</c><c>   1</c></rc>
    <rc><c>Ni</c><c>   1</c></rc>
    <rc><c>Ni</c><c>   1</c></rc>
    <rc><c>Ni</c><c>   1</c></rc>
    <rc><c>Ni</c><c>   1</c></rc>
    <rc><c>Ni</c><c>   1</c></rc>
    <rc><c>Ni</c><c>   1</c></rc>
    <rc><c>Ni</c><c>   1</c></rc>
    <rc><c>Ni</c><c>   1</c></rc>
    <rc><c>Ni</c><c>   1</c></rc>
    <rc><c>Ni</c><c>   1</c></rc>
    <rc><c>Ni</c><c>   1</c></rc>
    <rc><c>Ni</c><c>   1</c></rc>
    <rc><c>Ni</c><c>   1</c></rc>
    <rc><c>Ni</c><c>   1</c></rc>
    <rc><c>Ni</c><c>   1</c></rc>
    <rc><c>Ni</c><c>   1</c></rc>
    <rc><c>Ni</c><c>   1</c></rc>
    <rc><c>Ni</c><c>   1</c></rc>
    <rc><c>Ni</c><c>   1</c></rc>
    <rc><c>Ni</c><c>   1</c></rc>
    <rc><c>Ni</c><c>   1</c></rc>
    <rc><c>Ni</c><c>   1</c></rc>
    <rc><c>Ni</c><c>   1</c></rc>
    <rc><c>Ni</c><c>   1</c></rc>
    <rc><c>Ni</c><c>   1</c></rc>
    <rc><c>Ni</c><c>   1</c></rc>
    <rc><c>Ni</c><c>   1</c></rc>
    <rc><c>Ni</c><c>   1</c></rc>
    <rc><c>Ni</c><c>   1</c></rc>
    <rc><c>Ni</c><c>   1</c></rc>
    <rc><c>Ni</c><c>   1</c></rc>
    <rc><c>Ni</c><c>   1</c></rc>
    <rc><c>Ni</c><c>   1</c></rc>
    <rc><c>Ni</c><c>   1</c></rc>
    <rc><c>Ni</c><c>   1</c></rc>
    <rc><c>Ni</c><c>   1</c></rc>
    <rc><c>Ni</c><c>   1</c></rc>
    <rc><c>Ni</c><c>   1</c></rc>
    <rc><c>Ni</c><c>   1</c></rc>
    <rc><c>Ni</c><c>   1</c></rc>
    <rc><c>Ni</c><c>   1</c></rc>
    <rc><c>Ni</c><c>   1</c></rc>
    <rc><c>Ni</c><c>   1</c></rc>
    <rc><c>Ni</c><c>   1</c></rc>
    <rc><c>Ni</c><c>   1</c></rc>
    <rc><c>Ni</c><c>   1</c></rc>
    <rc><c>Ni</c><c>   1</c></rc>
    <rc><c>Ni</c><c>   1</c></rc>
    <rc><c>Ni</c><c>   1</c></rc>
    <rc><c>Ni</c><c>   1</c></rc>
    <rc><c>Ni</c><c>   1</c></rc>
    <rc><c>Ni</c><c>   1</c></rc>
    <rc><c>Ni</c><c>   1</c></rc>
    <rc><c>Ni</c><c>   1</c></rc>
    <rc><c>Ni</c><c>   1</c></rc>
    <rc><c>Ni</c><c>   1</c></rc>
    <rc><c>Ni</c><c>   1</c></rc>
    <rc><c>Ni</c><c>   1</c></rc>
    <rc><c>Ni</c><c>   1</c></rc>
    <rc><c>Ni</c><c>   1</c></rc>
    <rc><c>Ni</c><c>   1</c></rc>
    <rc><c>Ni</c><c>   1</c></rc>
    <rc><c>Ni</c><c>   1</c></rc>
    <rc><c>Ni</c><c>   1</c></rc>
    <rc><c>Ni</c><c>   1</c></rc>
    <rc><c>Ni</c><c>   1</c></rc>
    <rc><c>O </c><c>   2</c></rc>
   </set>
  </array>
  <array name="atomtypes" >
   <dimension dim="1">type</dimension>
   <field type="int">atomspertype</field>
   <field type="string">element</field>
   <field>mass</field>
   <field>valence</field>
   <field type="string">pseudopotential</field>
   <set>
    <rc><c> 252</c><c>Ni</c><c>     58.69000000</c><c>     10.00000000</c><c>  PAW Ni_GW 31Mar2010                   </c></rc>
    <rc><c>   1</c><c>O </c><c>     16.00000000</c><c>      6.00000000</c><c>  PAW O_GW 19Mar2012                    </c></rc>
   </set>
  </array>
 </atominfo>
 <structure name="initialpos" >
  <crystal>
   <varray name="basis" >
    <v>       0.00000000     -15.14622176       0.00000000 </v>
    <v>       0.00000000      -7.57311088     -13.11701281 </v>
    <v>      29.00000000       0.00000000       0.00000000 </v>
   </varray>
   <i name="volume">   5761.52236213 </i>
   <varray name="rec_basis" >
    <v>       0.00000000      -0.06602307       0.03811843 </v>
    <v>       0.00000000       0.00000000      -0.07623687 </v>
    <v>       0.03448276       0.00000000       0.00000000 </v>
   </varray>
  </crystal>
  <varray name="positions" >
   <v>       0.44444444       0.44444444       0.10434507 </v>
   <v>       0.44444444       0.77777778       0.10434507 </v>
   <v>       0.44444444       0.11111111       0.10434507 </v>
   <v>       0.77777778       0.44444444       0.10434507 </v>
   <v>       0.77777778       0.77777778       0.10434507 </v>
   <v>       0.77777778       0.11111111       0.10434507 </v>
   <v>       0.11111111       0.44444444       0.10434507 </v>
   <v>       0.11111111       0.77777778       0.10434507 </v>
   <v>       0.11111111       0.11111111       0.10434507 </v>
   <v>       0.55555556       0.55555556       0.17318538 </v>
   <v>       0.55555556       0.88888889       0.17318538 </v>
   <v>       0.55555556       0.22222222       0.17318538 </v>
   <v>       0.88888889       0.55555556       0.17318538 </v>
   <v>       0.88888889       0.88888889       0.17318538 </v>
   <v>       0.88888889       0.22222222       0.17318538 </v>
   <v>       0.22222222       0.55555556       0.17318538 </v>
   <v>       0.22222222       0.88888889       0.17318538 </v>
   <v>       0.22222222       0.22222222       0.17318538 </v>
   <v>       0.66666667       0.66666667       0.24249888 </v>
   <v>       0.66666667       0.00000000       0.24249888 </v>
   <v>       0.66666667       0.33333333       0.24249888 </v>
   <v>       0.00000000       0.66666667       0.24249888 </v>
   <v>       0.00000000       0.00000000       0.24249888 </v>
   <v>       0.00000000       0.33333333       0.24249888 </v>
   <v>       0.33333333       0.66666667       0.24249888 </v>
   <v>       0.33333333       0.00000000       0.24249888 </v>
   <v>       0.33333333       0.33333333       0.24249888 </v>
   <v>       0.77777778       0.77777778       0.31173066 </v>
   <v>       0.77777778       0.11111111       0.31173066 </v>
   <v>       0.77777778       0.44444444       0.31173066 </v>
   <v>       0.11111111       0.77777778       0.31173066 </v>
   <v>       0.11111111       0.11111111       0.31173066 </v>
   <v>       0.11111111       0.44444444       0.31173066 </v>
   <v>       0.44444444       0.77777778       0.31173066 </v>
   <v>       0.44444444       0.11111111       0.31173066 </v>
   <v>       0.44444444       0.44444444       0.31173066 </v>
   <v>       0.88888889       0.88888889       0.38096243 </v>
   <v>       0.88888889       0.22222222       0.38096243 </v>
   <v>       0.88888889       0.55555556       0.38096243 </v>
   <v>       0.22222222       0.88888889       0.38096243 </v>
   <v>       0.22222222       0.22222222       0.38096243 </v>
   <v>       0.22222222       0.55555556       0.38096243 </v>
   <v>       0.55555556       0.88888889       0.38096243 </v>
   <v>       0.55555556       0.22222222       0.38096243 </v>
   <v>       0.55555556       0.55555556       0.38096243 </v>
   <v>       0.00000000       0.00000000       0.45027593 </v>
   <v>       0.00000000       0.33333333       0.45027593 </v>
   <v>       0.00000000       0.66666667       0.45027593 </v>
   <v>       0.33333333       0.00000000       0.45027593 </v>
   <v>       0.33333333       0.33333333       0.45027593 </v>
   <v>       0.33333333       0.66666667       0.45027593 </v>
   <v>       0.66666667       0.00000000       0.45027593 </v>
   <v>       0.66666667       0.33333333       0.45027593 </v>
   <v>       0.66666667       0.66666667       0.45027593 </v>
   <v>       0.11111111       0.11111111       0.51911624 </v>
   <v>       0.11111111       0.44444444       0.51911624 </v>
   <v>       0.11111111       0.77777778       0.51911624 </v>
   <v>       0.44444444       0.11111111       0.51911624 </v>
   <v>       0.44444444       0.44444444       0.51911624 </v>
   <v>       0.44444444       0.77777778       0.51911624 </v>
   <v>       0.77777778       0.11111111       0.51911624 </v>
   <v>       0.77777778       0.44444444       0.51911624 </v>
   <v>       0.77777778       0.77777778       0.51911624 </v>
   <v>       0.27777778       0.27777778       0.10434507 </v>
   <v>       0.27777778       0.61111111       0.10434507 </v>
   <v>       0.27777778       0.94444444       0.10434507 </v>
   <v>       0.61111111       0.27777778       0.10434507 </v>
   <v>       0.61111111       0.61111111       0.10434507 </v>
   <v>       0.61111111       0.94444444       0.10434507 </v>
   <v>       0.94444444       0.27777778       0.10434507 </v>
   <v>       0.94444444       0.61111111       0.10434507 </v>
   <v>       0.94444444       0.94444444       0.10434507 </v>
   <v>       0.38888889       0.38888889       0.17318538 </v>
   <v>       0.38888889       0.72222222       0.17318538 </v>
   <v>       0.38888889       0.05555556       0.17318538 </v>
   <v>       0.72222222       0.38888889       0.17318538 </v>
   <v>       0.72222222       0.72222222       0.17318538 </v>
   <v>       0.72222222       0.05555556       0.17318538 </v>
   <v>       0.05555556       0.38888889       0.17318538 </v>
   <v>       0.05555556       0.72222222       0.17318538 </v>
   <v>       0.05555556       0.05555556       0.17318538 </v>
   <v>       0.50000000       0.50000000       0.24249888 </v>
   <v>       0.50000000       0.83333333       0.24249888 </v>
   <v>       0.50000000       0.16666667       0.24249888 </v>
   <v>       0.83333333       0.50000000       0.24249888 </v>
   <v>       0.83333333       0.83333333       0.24249888 </v>
   <v>       0.83333333       0.16666667       0.24249888 </v>
   <v>       0.16666667       0.50000000       0.24249888 </v>
   <v>       0.16666667       0.83333333       0.24249888 </v>
   <v>       0.16666667       0.16666667       0.24249888 </v>
   <v>       0.61111111       0.61111111       0.31173066 </v>
   <v>       0.61111111       0.94444444       0.31173066 </v>
   <v>       0.61111111       0.27777778       0.31173066 </v>
   <v>       0.94444444       0.61111111       0.31173066 </v>
   <v>       0.94444444       0.94444444       0.31173066 </v>
   <v>       0.94444444       0.27777778       0.31173066 </v>
   <v>       0.27777778       0.61111111       0.31173066 </v>
   <v>       0.27777778       0.94444444       0.31173066 </v>
   <v>       0.27777778       0.27777778       0.31173066 </v>
   <v>       0.72222222       0.72222222       0.38096243 </v>
   <v>       0.72222222       0.05555556       0.38096243 </v>
   <v>       0.72222222       0.38888889       0.38096243 </v>
   <v>       0.05555556       0.72222222       0.38096243 </v>
   <v>       0.05555556       0.05555556       0.38096243 </v>
   <v>       0.05555556       0.38888889       0.38096243 </v>
   <v>       0.38888889       0.72222222       0.38096243 </v>
   <v>       0.38888889       0.05555556       0.38096243 </v>
   <v>       0.38888889       0.38888889       0.38096243 </v>
   <v>       0.83333333       0.83333333       0.45027593 </v>
   <v>       0.83333333       0.16666667       0.45027593 </v>
   <v>       0.83333333       0.50000000       0.45027593 </v>
   <v>       0.16666667       0.83333333       0.45027593 </v>
   <v>       0.16666667       0.16666667       0.45027593 </v>
   <v>       0.16666667       0.50000000       0.45027593 </v>
   <v>       0.50000000       0.83333333       0.45027593 </v>
   <v>       0.50000000       0.16666667       0.45027593 </v>
   <v>       0.50000000       0.50000000       0.45027593 </v>
   <v>       0.94444444       0.94444444       0.51911624 </v>
   <v>       0.94444444       0.27777778       0.51911624 </v>
   <v>       0.94444444       0.61111111       0.51911624 </v>
   <v>       0.27777778       0.94444444       0.51911624 </v>
   <v>       0.27777778       0.27777778       0.51911624 </v>
   <v>       0.27777778       0.61111111       0.51911624 </v>
   <v>       0.61111111       0.94444444       0.51911624 </v>
   <v>       0.61111111       0.27777778       0.51911624 </v>
   <v>       0.61111111       0.61111111       0.51911624 </v>
   <v>       0.27777778       0.44444444       0.10434507 </v>
   <v>       0.27777778       0.77777778       0.10434507 </v>
   <v>       0.27777778       0.11111111       0.10434507 </v>
   <v>       0.61111111       0.44444444       0.10434507 </v>
   <v>       0.61111111       0.77777778       0.10434507 </v>
   <v>       0.61111111       0.11111111       0.10434507 </v>
   <v>       0.94444444       0.44444444       0.10434507 </v>
   <v>       0.94444444       0.77777778       0.10434507 </v>
   <v>       0.94444444       0.11111111       0.10434507 </v>
   <v>       0.38888889       0.55555556       0.17318538 </v>
   <v>       0.38888889       0.88888889       0.17318538 </v>
   <v>       0.38888889       0.22222222       0.17318538 </v>
   <v>       0.72222222       0.55555556       0.17318538 </v>
   <v>       0.72222222       0.88888889       0.17318538 </v>
   <v>       0.72222222       0.22222222       0.17318538 </v>
   <v>       0.05555556       0.55555556       0.17318538 </v>
   <v>       0.05555556       0.88888889       0.17318538 </v>
   <v>       0.05555556       0.22222222       0.17318538 </v>
   <v>       0.50000000       0.66666667       0.24249888 </v>
   <v>       0.50000000       0.00000000       0.24249888 </v>
   <v>       0.50000000       0.33333333       0.24249888 </v>
   <v>       0.83333333       0.66666667       0.24249888 </v>
   <v>       0.83333333       0.00000000       0.24249888 </v>
   <v>       0.83333333       0.33333333       0.24249888 </v>
   <v>       0.16666667       0.66666667       0.24249888 </v>
   <v>       0.16666667       0.00000000       0.24249888 </v>
   <v>       0.16666667       0.33333333       0.24249888 </v>
   <v>       0.61111111       0.77777778       0.31173066 </v>
   <v>       0.61111111       0.11111111       0.31173066 </v>
   <v>       0.61111111       0.44444444       0.31173066 </v>
   <v>       0.94444444       0.77777778       0.31173066 </v>
   <v>       0.94444444       0.11111111       0.31173066 </v>
   <v>       0.94444444       0.44444444       0.31173066 </v>
   <v>       0.27777778       0.77777778       0.31173066 </v>
   <v>       0.27777778       0.11111111       0.31173066 </v>
   <v>       0.27777778       0.44444444       0.31173066 </v>
   <v>       0.72222222       0.88888889       0.38096243 </v>
   <v>       0.72222222       0.22222222       0.38096243 </v>
   <v>       0.72222222       0.55555556       0.38096243 </v>
   <v>       0.05555556       0.88888889       0.38096243 </v>
   <v>       0.05555556       0.22222222       0.38096243 </v>
   <v>       0.05555556       0.55555556       0.38096243 </v>
   <v>       0.38888889       0.88888889       0.38096243 </v>
   <v>       0.38888889       0.22222222       0.38096243 </v>
   <v>       0.38888889       0.55555556       0.38096243 </v>
   <v>       0.83333333       0.00000000       0.45027593 </v>
   <v>       0.83333333       0.33333333       0.45027593 </v>
   <v>       0.83333333       0.66666667       0.45027593 </v>
   <v>       0.16666667       0.00000000       0.45027593 </v>
   <v>       0.16666667       0.33333333       0.45027593 </v>
   <v>       0.16666667       0.66666667       0.45027593 </v>
   <v>       0.50000000       0.00000000       0.45027593 </v>
   <v>       0.50000000       0.33333333       0.45027593 </v>
   <v>       0.50000000       0.66666667       0.45027593 </v>
   <v>       0.94444444       0.11111111       0.51911624 </v>
   <v>       0.94444444       0.44444444       0.51911624 </v>
   <v>       0.94444444       0.77777778       0.51911624 </v>
   <v>       0.27777778       0.11111111       0.51911624 </v>
   <v>       0.27777778       0.44444444       0.51911624 </v>
   <v>       0.27777778       0.77777778       0.51911624 </v>
   <v>       0.61111111       0.11111111       0.51911624 </v>
   <v>       0.61111111       0.44444444       0.51911624 </v>
   <v>       0.61111111       0.77777778       0.51911624 </v>
   <v>       0.44444444       0.27777778       0.10434507 </v>
   <v>       0.44444444       0.61111111       0.10434507 </v>
   <v>       0.44444444       0.94444444       0.10434507 </v>
   <v>       0.77777778       0.27777778       0.10434507 </v>
   <v>       0.77777778       0.61111111       0.10434507 </v>
   <v>       0.77777778       0.94444444       0.10434507 </v>
   <v>       0.11111111       0.27777778       0.10434507 </v>
   <v>       0.11111111       0.61111111       0.10434507 </v>
   <v>       0.11111111       0.94444444       0.10434507 </v>
   <v>       0.55555556       0.38888889       0.17318538 </v>
   <v>       0.55555556       0.72222222       0.17318538 </v>
   <v>       0.55555556       0.05555556       0.17318538 </v>
   <v>       0.88888889       0.38888889       0.17318538 </v>
   <v>       0.88888889       0.72222222       0.17318538 </v>
   <v>       0.88888889       0.05555556       0.17318538 </v>
   <v>       0.22222222       0.38888889       0.17318538 </v>
   <v>       0.22222222       0.72222222       0.17318538 </v>
   <v>       0.22222222       0.05555556       0.17318538 </v>
   <v>       0.66666667       0.50000000       0.24249888 </v>
   <v>       0.66666667       0.83333333       0.24249888 </v>
   <v>       0.66666667       0.16666667       0.24249888 </v>
   <v>       0.00000000       0.50000000       0.24249888 </v>
   <v>       0.00000000       0.83333333       0.24249888 </v>
   <v>       0.00000000       0.16666667       0.24249888 </v>
   <v>       0.33333333       0.50000000       0.24249888 </v>
   <v>       0.33333333       0.83333333       0.24249888 </v>
   <v>       0.33333333       0.16666667       0.24249888 </v>
   <v>       0.77777778       0.61111111       0.31173066 </v>
   <v>       0.77777778       0.94444444       0.31173066 </v>
   <v>       0.77777778       0.27777778       0.31173066 </v>
   <v>       0.11111111       0.61111111       0.31173066 </v>
   <v>       0.11111111       0.94444444       0.31173066 </v>
   <v>       0.11111111       0.27777778       0.31173066 </v>
   <v>       0.44444444       0.61111111       0.31173066 </v>
   <v>       0.44444444       0.94444444       0.31173066 </v>
   <v>       0.44444444       0.27777778       0.31173066 </v>
   <v>       0.88888889       0.72222222       0.38096243 </v>
   <v>       0.88888889       0.05555556       0.38096243 </v>
   <v>       0.88888889       0.38888889       0.38096243 </v>
   <v>       0.22222222       0.72222222       0.38096243 </v>
   <v>       0.22222222       0.05555556       0.38096243 </v>
   <v>       0.22222222       0.38888889       0.38096243 </v>
   <v>       0.55555556       0.72222222       0.38096243 </v>
   <v>       0.55555556       0.05555556       0.38096243 </v>
   <v>       0.55555556       0.38888889       0.38096243 </v>
   <v>       0.00000000       0.83333333       0.45027593 </v>
   <v>       0.00000000       0.16666667       0.45027593 </v>
   <v>       0.00000000       0.50000000       0.45027593 </v>
   <v>       0.33333333       0.83333333       0.45027593 </v>
   <v>       0.33333333       0.16666667       0.45027593 </v>
   <v>       0.33333333       0.50000000       0.45027593 </v>
   <v>       0.66666667       0.83333333       0.45027593 </v>
   <v>       0.66666667       0.16666667       0.45027593 </v>
   <v>       0.66666667       0.50000000       0.45027593 </v>
   <v>       0.11111111       0.94444444       0.51911624 </v>
   <v>       0.11111111       0.27777778       0.51911624 </v>
   <v>       0.11111111       0.61111111       0.51911624 </v>
   <v>       0.44444444       0.94444444       0.51911624 </v>
   <v>       0.44444444       0.27777778       0.51911624 </v>
   <v>       0.44444444       0.61111111       0.51911624 </v>
   <v>       0.77777778       0.94444444       0.51911624 </v>
   <v>       0.77777778       0.27777778       0.51911624 </v>
   <v>       0.77777778       0.61111111       0.51911624 </v>
   <v>       0.38888889       0.55555556       0.57000000 </v>
  </varray>
 </structure>
 <calculation>
  <scstep>
   <time name="dav">   16.33   16.34</time>
   <time name="total">   16.92   16.94</time>
   <energy>
    <i name="alphaZ">  11956.15812075 </i>
    <i name="ewald">1658644.74547110 </i>
    <i name="hartreedc">**************** </i>
    <i name="XCdc">   2922.52779064 </i>
    <i name="pawpsdc"> 240296.40052760 </i>
    <i name="pawaedc">-259856.80369814 </i>
    <i name="eentropy">     -0.18330363 </i>
    <i name="bandstr">  18903.60021680 </i>
    <i name="atom"> 271991.82707245 </i>
    <i name="e_fr_energy">  22263.55748616 </i>
    <i name="e_wo_entrp">  22263.74078979 </i>
    <i name="e_0_energy">  22263.64913797 </i>
   </energy>
  </scstep>
  <scstep>
   <time name="dav">   16.24   16.24</time>
   <time name="total">   16.25   16.25</time>
   <energy>
    <i name="e_fr_energy">     79.84846690 </i>
    <i name="e_wo_entrp">     80.05667911 </i>
    <i name="e_0_energy">     79.95257301 </i>
   </energy>
  </scstep>
  <scstep>
   <time name="dav">   17.69   17.69</time>
   <time name="total">   17.69   17.69</time>
   <energy>
    <i name="e_fr_energy">  -1336.18249242 </i>
    <i name="e_wo_entrp">  -1335.37104930 </i>
    <i name="e_0_energy">  -1335.77677086 </i>
   </energy>
  </scstep>
  <scstep>
   <time name="dav">   26.36   26.36</time>
   <time name="total">   26.36   26.36</time>
   <energy>
    <i name="e_fr_energy">  -1557.54871600 </i>
    <i name="e_wo_entrp">  -1556.38044607 </i>
    <i name="e_0_energy">  -1556.96458103 </i>
   </energy>
  </scstep>
  <scstep>
   <time name="dav">   23.38   23.39</time>
   <time name="total">   24.46   24.46</time>
   <energy>
    <i name="e_fr_energy">  -1568.04705966 </i>
    <i name="e_wo_entrp">  -1566.86005685 </i>
    <i name="e_0_energy">  -1567.45355826 </i>
   </energy>
  </scstep>
  <scstep>
   <time name="dav">   20.57   20.58</time>
   <time name="total">   22.19   22.19</time>
   <energy>
    <i name="e_fr_energy">  -1962.01959086 </i>
    <i name="e_wo_entrp">  -1961.69655600 </i>
    <i name="e_0_energy">  -1961.85807343 </i>
   </energy>
  </scstep>
  <scstep>
   <time name="dav">   17.51   17.51</time>
   <time name="total">   19.16   19.16</time>
   <energy>
    <i name="e_fr_energy">  -1718.22434900 </i>
    <i name="e_wo_entrp">  -1717.55250453 </i>
    <i name="e_0_energy">  -1717.88842677 </i>
   </energy>
  </scstep>
  <scstep>
   <time name="dav">   20.41   20.41</time>
   <time name="total">   22.03   22.03</time>
   <energy>
    <i name="e_fr_energy">  -1585.34485137 </i>
    <i name="e_wo_entrp">  -1584.73616964 </i>
    <i name="e_0_energy">  -1585.04051051 </i>
   </energy>
  </scstep>
  <scstep>
   <time name="dav">   17.94   17.95</time>
   <time name="total">   19.55   19.56</time>
   <energy>
    <i name="e_fr_energy">  -1960.38047573 </i>
    <i name="e_wo_entrp">  -1959.92946313 </i>
    <i name="e_0_energy">  -1960.15496943 </i>
   </energy>
  </scstep>
  <scstep>
   <time name="dav">   19.84   19.84</time>
   <time name="total">   21.47   21.47</time>
   <energy>
    <i name="e_fr_energy">  -1571.88920419 </i>
    <i name="e_wo_entrp">  -1571.46617805 </i>
    <i name="e_0_energy">  -1571.67769112 </i>
   </energy>
  </scstep>
  <scstep>
   <time name="dav">   18.56   18.57</time>
   <time name="total">   20.20   20.20</time>
   <energy>
    <i name="e_fr_energy">  -1609.41412605 </i>
    <i name="e_wo_entrp">  -1608.87772626 </i>
    <i name="e_0_energy">  -1609.14592616 </i>
   </energy>
  </scstep>
  <scstep>
   <time name="dav">   17.29   17.29</time>
   <time name="total">   18.95   18.96</time>
   <energy>
    <i name="e_fr_energy">  -1555.05310222 </i>
    <i name="e_wo_entrp">  -1554.40094123 </i>
    <i name="e_0_energy">  -1554.72702173 </i>
   </energy>
  </scstep>
  <scstep>
   <time name="dav">   17.08   17.08</time>
   <time name="total">   18.73   18.73</time>
   <energy>
    <i name="e_fr_energy">  -1475.74669969 </i>
    <i name="e_wo_entrp">  -1475.21471512 </i>
    <i name="e_0_energy">  -1475.48070740 </i>
   </energy>
  </scstep>
  <scstep>
   <time name="dav">   16.93   16.93</time>
   <time name="total">   18.60   18.60</time>
   <energy>
    <i name="e_fr_energy">  -1457.99310142 </i>
    <i name="e_wo_entrp">  -1457.41762538 </i>
    <i name="e_0_energy">  -1457.70536340 </i>
   </energy>
  </scstep>
  <scstep>
   <time name="dav">   17.43   17.43</time>
   <time name="total">   19.09   19.09</time>
   <energy>
    <i name="e_fr_energy">  -1480.26665619 </i>
    <i name="e_wo_entrp">  -1479.81295972 </i>
    <i name="e_0_energy">  -1480.03980796 </i>
   </energy>
  </scstep>
  <scstep>
   <time name="dav">   17.00   17.00</time>
   <time name="total">   18.70   18.70</time>
   <energy>
    <i name="e_fr_energy">  -1503.35937865 </i>
    <i name="e_wo_entrp">  -1503.00710410 </i>
    <i name="e_0_energy">  -1503.18324138 </i>
   </energy>
  </scstep>
  <scstep>
   <time name="dav">   16.84   16.85</time>
   <time name="total">   18.54   18.54</time>
   <energy>
    <i name="e_fr_energy">  -1429.97322377 </i>
    <i name="e_wo_entrp">  -1429.48921726 </i>
    <i name="e_0_energy">  -1429.73122052 </i>
   </energy>
  </scstep>
  <scstep>
   <time name="dav">   16.81   16.81</time>
   <time name="total">   18.53   18.54</time>
   <energy>
    <i name="e_fr_energy">  -1365.92582485 </i>
    <i name="e_wo_entrp">  -1365.29220741 </i>
    <i name="e_0_energy">  -1365.60901613 </i>
   </energy>
  </scstep>
  <scstep>
   <time name="dav">   16.90   16.90</time>
   <time name="total">   18.62   18.62</time>
   <energy>
    <i name="e_fr_energy">  -1331.75571319 </i>
    <i name="e_wo_entrp">  -1330.55433803 </i>
    <i name="e_0_energy">  -1331.15502561 </i>
   </energy>
  </scstep>
  <scstep>
   <time name="dav">   17.28   17.28</time>
   <time name="total">   19.03   19.03</time>
   <energy>
    <i name="e_fr_energy">  -1337.82690436 </i>
    <i name="e_wo_entrp">  -1336.76364585 </i>
    <i name="e_0_energy">  -1337.29527510 </i>
   </energy>
  </scstep>
  <scstep>
   <time name="dav">   17.10   17.11</time>
   <time name="total">   18.87   18.87</time>
   <energy>
    <i name="e_fr_energy">  -1340.77406898 </i>
    <i name="e_wo_entrp">  -1339.84040792 </i>
    <i name="e_0_energy">  -1340.30723845 </i>
   </energy>
  </scstep>
  <scstep>
   <time name="dav">   17.08   17.08</time>
   <time name="total">   18.84   18.84</time>
   <energy>
    <i name="e_fr_energy">  -1329.83674342 </i>
    <i name="e_wo_entrp">  -1328.59826212 </i>
    <i name="e_0_energy">  -1329.21750277 </i>
   </energy>
  </scstep>
  <scstep>
   <time name="dav">   17.46   17.46</time>
   <time name="total">   19.25   19.25</time>
   <energy>
    <i name="e_fr_energy">  -1325.74281368 </i>
    <i name="e_wo_entrp">  -1324.39575819 </i>
    <i name="e_0_energy">  -1325.06928593 </i>
   </energy>
  </scstep>
  <scstep>
   <time name="dav">   17.45   17.46</time>
   <time name="total">   19.26   19.26</time>
   <energy>
    <i name="e_fr_energy">  -1326.18475544 </i>
    <i name="e_wo_entrp">  -1324.83651278 </i>
    <i name="e_0_energy">  -1325.51063411 </i>
   </energy>
  </scstep>
  <scstep>
   <time name="dav">   17.40   17.40</time>
   <time name="total">   19.22   19.22</time>
   <energy>
    <i name="e_fr_energy">  -1326.75658305 </i>
    <i name="e_wo_entrp">  -1325.44432760 </i>
    <i name="e_0_energy">  -1326.10045532 </i>
   </energy>
  </scstep>
  <scstep>
   <time name="dav">   17.45   17.45</time>
   <time name="total">   19.28   19.28</time>
   <energy>
    <i name="e_fr_energy">  -1324.55355320 </i>
    <i name="e_wo_entrp">  -1323.16106472 </i>
    <i name="e_0_energy">  -1323.85730896 </i>
   </energy>
  </scstep>
  <scstep>
   <time name="dav">   18.06   18.06</time>
   <time name="total">   19.92   19.92</time>
   <energy>
    <i name="e_fr_energy">  -1324.57091518 </i>
    <i name="e_wo_entrp">  -1323.19150459 </i>
    <i name="e_0_energy">  -1323.88120989 </i>
   </energy>
  </scstep>
  <scstep>
   <time name="dav">   17.62   17.63</time>
   <time name="total">   19.48   19.48</time>
   <energy>
    <i name="e_fr_energy">  -1325.02733999 </i>
    <i name="e_wo_entrp">  -1323.66443290 </i>
    <i name="e_0_energy">  -1324.34588645 </i>
   </energy>
  </scstep>
  <scstep>
   <time name="dav">   17.62   17.62</time>
   <time name="total">   19.52   19.52</time>
   <energy>
    <i name="e_fr_energy">  -1325.64233745 </i>
    <i name="e_wo_entrp">  -1324.31358956 </i>
    <i name="e_0_energy">  -1324.97796351 </i>
   </energy>
  </scstep>
  <scstep>
   <time name="dav">   18.21   18.21</time>
   <time name="total">   20.10   20.11</time>
   <energy>
    <i name="e_fr_energy">  -1323.87568641 </i>
    <i name="e_wo_entrp">  -1322.45032482 </i>
    <i name="e_0_energy">  -1323.16300562 </i>
   </energy>
  </scstep>
  <scstep>
   <time name="dav">   18.35   18.35</time>
   <time name="total">   20.28   20.28</time>
   <energy>
    <i name="e_fr_energy">  -1324.02411349 </i>
    <i name="e_wo_entrp">  -1322.58853067 </i>
    <i name="e_0_energy">  -1323.30632208 </i>
   </energy>
  </scstep>
  <scstep>
   <time name="dav">   17.74   17.74</time>
   <time name="total">   19.66   19.66</time>
   <energy>
    <i name="e_fr_energy">  -1324.15322050 </i>
    <i name="e_wo_entrp">  -1322.71287892 </i>
    <i name="e_0_energy">  -1323.43304971 </i>
   </energy>
  </scstep>
  <scstep>
   <time name="dav">   17.80   17.80</time>
   <time name="total">   19.77   19.77</time>
   <energy>
    <i name="e_fr_energy">  -1323.49899555 </i>
    <i name="e_wo_entrp">  -1322.03315059 </i>
[...]
       <r>    -0.0993   180.4633  2686.6772 </r>
       <r>    -0.0084   145.5461  2699.9007 </r>
       <r>     0.0824    96.9635  2708.7102 </r>
       <r>     0.1733    44.5875  2712.7612 </r>
       <r>     0.2641    66.5953  2718.8117 </r>
       <r>     0.3550    52.6069  2723.5912 </r>
       <r>     0.4458    80.1652  2730.8746 </r>
       <r>     0.5367   101.6958  2740.1141 </r>
       <r>     0.6275    73.9179  2746.8298 </r>
       <r>     0.7184   103.4543  2756.2291 </r>
       <r>     0.8092   104.3013  2765.7053 </r>
       <r>     0.9001    95.3297  2774.3664 </r>
       <r>     0.9909   141.0925  2787.1852 </r>
       <r>     1.0818    59.7112  2792.6103 </r>
       <r>     1.1727    36.9032  2795.9631 </r>
       <r>     1.2635    70.5615  2802.3739 </r>
       <r>     1.3544   111.5294  2812.5068 </r>
       <r>     1.4452    42.4831  2816.3666 </r>
       <r>     1.5361    31.0730  2819.1897 </r>
       <r>     1.6269    65.3959  2825.1312 </r>
       <r>     1.7178   146.8677  2838.4747 </r>
       <r>     1.8086    53.8918  2843.3710 </r>
       <r>     1.8995    61.4848  2848.9572 </r>
       <r>     1.9903    97.7179  2857.8353 </r>
       <r>     2.0812    83.1859  2865.3930 </r>
       <r>     2.1721    64.3181  2871.2366 </r>
       <r>     2.2629    81.2272  2878.6165 </r>
       <r>     2.3538   122.7659  2889.7703 </r>
       <r>     2.4446    81.4938  2897.1743 </r>
       <r>     2.5355    70.9494  2903.6204 </r>
       <r>     2.6263    38.3272  2907.1026 </r>
       <r>     2.7172    15.0302  2908.4681 </r>
       <r>     2.8080    37.8812  2911.9098 </r>
       <r>     2.8989    32.7992  2914.8897 </r>
       <r>     2.9897    58.4363  2920.1989 </r>
       <r>     3.0806   120.8399  2931.1777 </r>
       <r>     3.1714   181.4645  2947.6645 </r>
       <r>     3.2623    64.5778  2953.5317 </r>
       <r>     3.3532    48.4875  2957.9370 </r>
       <r>     3.4440    43.0119  2961.8448 </r>
       <r>     3.5349    91.9423  2970.1982 </r>
       <r>     3.6257    53.3507  2975.0453 </r>
       <r>     3.7166    62.6595  2980.7382 </r>
       <r>     3.8074    53.0401  2985.5571 </r>
       <r>     3.8983    25.7071  2987.8927 </r>
       <r>     3.9891     2.0586  2988.0797 </r>
       <r>     4.0800    23.2584  2990.1929 </r>
       <r>     4.1708    44.6305  2994.2477 </r>
       <r>     4.2617    80.1170  3001.5267 </r>
       <r>     4.3526    52.9963  3006.3416 </r>
       <r>     4.4434    82.0197  3013.7935 </r>
       <r>     4.5343    20.3548  3015.6428 </r>
       <r>     4.6251    53.1314  3020.4700 </r>
       <r>     4.7160    62.0701  3026.1093 </r>
       <r>     4.8068    40.7181  3029.8087 </r>
       <r>     4.8977     2.1046  3030.0000 </r>
       <r>     4.9885     0.0005  3030.0000 </r>
       <r>     5.0794     0.0000  3030.0000 </r>
       <r>     5.1702     0.0000  3030.0000 </r>
       <r>     5.2611     0.0000  3030.0000 </r>
       <r>     5.3519     0.0000  3030.0000 </r>
       <r>     5.4428     0.0000  3030.0000 </r>
       <r>     5.5337     0.0000  3030.0000 </r>
       <r>     5.6245     0.0000  3030.0000 </r>
       <r>     5.7154     0.0000  3030.0000 </r>
       <r>     5.8062     0.0000  3030.0000 </r>
       <r>     5.8971     0.0000  3030.0000 </r>
       <r>     5.9879     0.0000  3030.0000 </r>
      </set>
     </set>
    </array>
   </total>
  </dos>
 </calculation>
 <structure name="finalpos" >
  <crystal>
   <varray name="basis" >
    <v>       0.00000000     -15.14622176       0.00000000 </v>
    <v>       0.00000000      -7.57311088     -13.11701281 </v>
    <v>      29.00000000       0.00000000       0.00000000 </v>
   </varray>
   <i name="volume">   5761.52236213 </i>
   <varray name="rec_basis" >
    <v>       0.00000000      -0.06602307       0.03811843 </v>
    <v>       0.00000000       0.00000000      -0.07623687 </v>
    <v>       0.03448276       0.00000000       0.00000000 </v>
   </varray>
  </crystal>
  <varray name="positions" >
   <v>       0.44444919       0.44443494       0.10842272 </v>
   <v>       0.44443804       0.77776221       0.10839268 </v>
   <v>       0.44441162       0.11115588       0.10839906 </v>
   <v>       0.77777229       0.44442780       0.10838107 </v>
   <v>       0.77779933       0.77773467       0.10845089 </v>
   <v>       0.77776584       0.11115588       0.10839906 </v>
   <v>       0.11113324       0.44442780       0.10838107 </v>
   <v>       0.11113308       0.77776221       0.10839268 </v>
   <v>       0.11111109       0.11111116       0.10832695 </v>
   <v>       0.55551831       0.55553619       0.17650416 </v>
   <v>       0.55547018       0.88881444       0.17642823 </v>
   <v>       0.55547612       0.22238109       0.17645766 </v>
   <v>       0.88893007       0.55547319       0.17641480 </v>
   <v>       0.88904872       0.88881444       0.17642823 </v>
   <v>       0.88888041       0.22228344       0.17642411 </v>
   <v>       0.22227883       0.55553619       0.17650416 </v>
   <v>       0.22223323       0.88886688       0.17648510 </v>
   <v>       0.22216949       0.22228344       0.17642411 </v>
   <v>       0.66653896       0.66662000       0.24408277 </v>
   <v>       0.66661985       0.00009363       0.24406057 </v>
   <v>       0.66655335       0.33347447       0.24417851 </v>
   <v>       0.00017437       0.66662000       0.24408277 </v>
   <v>       0.00004018      -0.00006315       0.24406815 </v>
   <v>       0.00000484       0.33332366       0.24406399 </v>
   <v>       0.33336144       0.66661045       0.24427665 </v>
   <v>       0.33335630      -0.00006315       0.24406815 </v>
   <v>       0.33330552       0.33347447       0.24417851 </v>
   <v>       0.77778552       0.77776230       0.31167281 </v>
   <v>       0.77766522       0.11118032       0.31164646 </v>
   <v>       0.77778691       0.44439689       0.31174033 </v>
   <v>       0.11133371       0.77764614       0.31184479 </v>
   <v>       0.11108742       0.11115849       0.31173664 </v>
   <v>       0.11114953       0.44439689       0.31174033 </v>
   <v>       0.44435348       0.77764614       0.31184479 </v>
   <v>       0.44448779       0.11118032       0.31164646 </v>
   <v>       0.44435604       0.44462124       0.31210147 </v>
   <v>       0.88914498       0.88866058       0.37924881 </v>
   <v>       0.88887171       0.22220363       0.37932829 </v>
   <v>       0.88882193       0.55568948       0.37919520 </v>
   <v>       0.22221579       0.88890176       0.37942088 </v>
   <v>       0.22225799       0.22220363       0.37932829 </v>
   <v>       0.22228957       0.55565754       0.37976497 </v>
   <v>       0.55552777       0.88866058       0.37924881 </v>
   <v>       0.55535423       0.22262487       0.37941594 </v>
   <v>       0.55538622       0.55565754       0.37976497 </v>
   <v>      -0.00032102       0.00005992       0.44685775 </v>
   <v>       0.00001965       0.33329404       0.44703569 </v>
   <v>       0.00036352       0.66670524       0.44694172 </v>
   <v>       0.33359443       0.00005992       0.44685775 </v>
   <v>       0.33341300       0.33284196       0.44702535 </v>
   <v>       0.33321433       0.66690468       0.44785830 </v>
   <v>       0.66663592       0.00006149       0.44690352 </v>
   <v>       0.66707838       0.33284196       0.44702535 </v>
   <v>       0.66626457       0.66670524       0.44694172 </v>
   <v>       0.11090862       0.11151610       0.51519793 </v>
   <v>       0.10997629       0.44425056       0.51502300 </v>
   <v>       0.10998092       0.77887463       0.51508945 </v>
   <v>       0.44470249       0.11055052       0.51487547 </v>
   <v>       0.44599740       0.44133853       0.51873786 </v>
   <v>       0.44447778       0.77887463       0.51508945 </v>
   <v>       0.77808032       0.11055052       0.51487547 </v>
   <v>       0.77910648       0.44425056       0.51502300 </v>
   <v>       0.77770236       0.77792861       0.51491941 </v>
   <v>       0.27776114       0.27779990       0.10838107 </v>
   <v>       0.27776828       0.61111586       0.10842272 </v>
   <v>       0.27776114       0.94443896       0.10838107 </v>
   <v>       0.61109554       0.27779975       0.10839268 </v>
   <v>       0.61109554       0.61110471       0.10839268 </v>
   <v>       0.61106800       0.94446600       0.10845089 </v>
   <v>       0.94444449       0.27777775       0.10832695 </v>
   <v>       0.94448921       0.61107828       0.10839906 </v>
   <v>       0.94448921       0.94443251       0.10839906 </v>
   <v>       0.38886953       0.38894550       0.17650416 </v>
   <v>       0.38886953       0.72218498       0.17650416 </v>
   <v>       0.38880652       0.05559674       0.17641480 </v>
   <v>       0.72220021       0.38889989       0.17648510 </v>
   <v>       0.72214777       0.72213684       0.17642823 </v>
   <v>       0.72214777       0.05571538       0.17642823 </v>
   <v>       0.05561677       0.38883615       0.17642411 </v>
   <v>       0.05571443       0.72214279       0.17645766 </v>
   <v>       0.05561677       0.05554708       0.17642411 </v>
   <v>       0.49994378       0.50002811       0.24427665 </v>
   <v>       0.49995333       0.83320563       0.24408277 </v>
   <v>       0.49995333       0.16684104       0.24408277 </v>
   <v>       0.83327018       0.50002297       0.24406815 </v>
   <v>       0.83342696       0.83328652       0.24406057 </v>
   <v>       0.83327018       0.16670685       0.24406815 </v>
   <v>       0.16680780       0.49997218       0.24417851 </v>
   <v>       0.16680780       0.83322001       0.24417851 </v>
   <v>       0.16665699       0.16667150       0.24406399 </v>
   <v>       0.61097947       0.61102015       0.31184479 </v>
   <v>       0.61109563       0.94445218       0.31167281 </v>
   <v>       0.61097947       0.27800038       0.31184479 </v>
   <v>       0.94451366       0.61115446       0.31164646 </v>
   <v>       0.94451366       0.94433189       0.31164646 </v>
   <v>       0.94449182       0.27775409       0.31173664 </v>
   <v>       0.27795458       0.61102271       0.31210147 </v>
   <v>       0.27773022       0.94445358       0.31174033 </v>
   <v>       0.27773022       0.27781620       0.31174033 </v>
   <v>       0.72199392       0.72219443       0.37924881 </v>
   <v>       0.72199392       0.05581165       0.37924881 </v>
   <v>       0.72223510       0.38888245       0.37942088 </v>
   <v>       0.05595820       0.72202090       0.37941594 </v>
   <v>       0.05553696       0.05553838       0.37932829 </v>
   <v>       0.05553696       0.38892466       0.37932829 </v>
   <v>       0.38899088       0.72205289       0.37976497 </v>
   <v>       0.38902281       0.05548859       0.37919520 </v>
   <v>       0.38899088       0.38895623       0.37976497 </v>
   <v>       0.83339482       0.83330259       0.44690352 </v>
   <v>       0.83339325       0.16634565       0.44685775 </v>
   <v>       0.83339325       0.50026110       0.44685775 </v>
   <v>       0.16617529       0.83374504       0.44702535 </v>
   <v>       0.16662737       0.16668631       0.44703569 </v>
   <v>       0.16617529       0.50007967       0.44702535 </v>
   <v>       0.50003857       0.83293124       0.44694172 </v>
   <v>       0.50003857       0.16703019       0.44694172 </v>
   <v>       0.50023802       0.49988099       0.44785830 </v>
   <v>       0.94388385       0.94474699       0.51487547 </v>
   <v>       0.94484943       0.27757528       0.51519793 </v>
   <v>       0.94388385       0.61136916       0.51487547 </v>
   <v>       0.27758390       0.94577315       0.51502300 </v>
   <v>       0.27758390       0.27664295       0.51502300 </v>
   <v>       0.27467187       0.61266407       0.51873786 </v>
   <v>       0.61126194       0.94436903       0.51491941 </v>
   <v>       0.61220797       0.27664759       0.51508945 </v>
   <v>       0.61220797       0.61114445       0.51508945 </v>
   <v>       0.27779343       0.44446010       0.10842924 </v>
   <v>       0.27779343       0.77774647       0.10842924 </v>
   <v>       0.27775203       0.11112398       0.10840517 </v>
   <v>       0.61107980       0.44446010       0.10842924 </v>
   <v>       0.61109288       0.77775955       0.10835987 </v>
   <v>       0.61109288       0.11114757       0.10835987 </v>
   <v>       0.94445732       0.44441870       0.10840517 </v>
   <v>       0.94448090       0.77775955       0.10835987 </v>
   <v>       0.94445732       0.11112398       0.10840517 </v>
   <v>       0.38888889       0.55555556       0.17652242 </v>
   <v>       0.38878753       0.88883879       0.17644408 </v>
   <v>       0.38878753       0.22237368       0.17644408 </v>
   <v>       0.72217212       0.55545420       0.17644408 </v>
   <v>       0.72222222       0.88888889       0.17650672 </v>
   <v>       0.72217212       0.22237368       0.17644408 </v>
   <v>       0.05570702       0.55545420       0.17644408 </v>
   <v>       0.05570702       0.88883879       0.17644408 </v>
   <v>       0.05555556       0.22222222       0.17639122 </v>
   <v>       0.49988437       0.66655104       0.24424996 </v>
   <v>       0.50004855      -0.00002428       0.24403521 </v>
   <v>       0.49988437       0.33356459       0.24424996 </v>
   <v>       0.83330906       0.66671522       0.24403521 </v>
   <v>       0.83330906      -0.00002428       0.24403521 </v>
   <v>       0.83332939       0.33333530       0.24410943 </v>
   <v>       0.16689793       0.66655104       0.24424996 </v>
   <v>       0.16666864      -0.00000394       0.24410943 </v>
   <v>       0.16666864       0.33333530       0.24410943 </v>
   <v>       0.61104239       0.77770905       0.31163756 </v>
   <v>       0.61104239       0.11124856       0.31163756 </v>
   <v>       0.61099558       0.44450221       0.31197411 </v>
   <v>       0.94458189       0.77770905       0.31163756 </v>
   <v>       0.94446397       0.11113064       0.31168568 </v>
   <v>       0.94446397       0.44440540       0.31168568 </v>
   <v>       0.27783554       0.77766225       0.31197411 </v>
   <v>       0.27773873       0.11113064       0.31168568 </v>
   <v>       0.27783554       0.44450221       0.31197411 </v>
   <v>       0.72222222       0.88888889       0.37925359 </v>
   <v>       0.72214229       0.22228658       0.37927966 </v>
   <v>       0.72214229       0.55557113       0.37927966 </v>
   <v>       0.05561991       0.88880896       0.37927966 </v>
   <v>       0.05555556       0.22222222       0.37933806 </v>
   <v>       0.05561991       0.55557113       0.37927966 </v>
   <v>       0.38890446       0.88880896       0.37927966 </v>
   <v>       0.38890446       0.22228658       0.37927966 </v>
   <v>       0.38888889       0.55555556       0.38017629 </v>
   <v>       0.83313172      -0.00020161       0.44677399 </v>
   <v>       0.83359295       0.33320353       0.44705078 </v>
   <v>       0.83313172       0.66706988       0.44677399 </v>
   <v>       0.16653686       0.00025962       0.44705078 </v>
   <v>       0.16653686       0.33320353       0.44705078 </v>
   <v>       0.16834260       0.66582870       0.44827107 </v>
   <v>       0.50040322      -0.00020161       0.44677399 </v>
   <v>       0.49916203       0.33500927       0.44827107 </v>
   <v>       0.49916203       0.66582870       0.44827107 </v>
   <v>       0.94449148       0.11115814       0.51498398 </v>
   <v>       0.94449148       0.44435038       0.51498398 </v>
   <v>       0.94398195       0.77800903       0.51502228 </v>
   <v>       0.27768372       0.11115814       0.51498398 </v>
   <v>       0.27517348       0.44184015       0.51463262 </v>
   <v>       0.27517348       0.78298638       0.51463262 </v>
   <v>       0.61134236       0.11064862       0.51502228 </v>
   <v>       0.61631971       0.44184015       0.51463262 </v>
   <v>       0.61134236       0.77800903       0.51502228 </v>
   <v>       0.44443804       0.27779975       0.10839268 </v>
   <v>       0.44444919       0.61111586       0.10842272 </v>
   <v>       0.44441162       0.94443251       0.10839906 </v>
   <v>       0.77777229       0.27779990       0.10838107 </v>
   <v>       0.77776584       0.61107828       0.10839906 </v>
   <v>       0.77779933       0.94446600       0.10845089 </v>
   <v>       0.11111109       0.27777775       0.10832695 </v>
   <v>       0.11113308       0.61110471       0.10839268 </v>
   <v>       0.11113324       0.94443896       0.10838107 </v>
   <v>       0.55551831       0.38894550       0.17650416 </v>
   <v>       0.55547612       0.72214279       0.17645766 </v>
   <v>       0.55547018       0.05571538       0.17642823 </v>
   <v>       0.88888041       0.38883615       0.17642411 </v>
   <v>       0.88904872       0.72213684       0.17642823 </v>
   <v>       0.88893007       0.05559674       0.17641480 </v>
   <v>       0.22223323       0.38889989       0.17648510 </v>
   <v>       0.22227883       0.72218498       0.17650416 </v>
   <v>       0.22216949       0.05554708       0.17642411 </v>
   <v>       0.66655335       0.49997218       0.24417851 </v>
   <v>       0.66661985       0.83328652       0.24406057 </v>
   <v>       0.66653896       0.16684104       0.24408277 </v>
   <v>       0.00004018       0.50002297       0.24406815 </v>
   <v>       0.00017437       0.83320563       0.24408277 </v>
   <v>       0.00000484       0.16667150       0.24406399 </v>
   <v>       0.33336144       0.50002811       0.24427665 </v>
   <v>       0.33330552       0.83322001       0.24417851 </v>
   <v>       0.33335630       0.16670685       0.24406815 </v>
   <v>       0.77766522       0.61115446       0.31164646 </v>
   <v>       0.77778552       0.94445218       0.31167281 </v>
   <v>       0.77778691       0.27781620       0.31174033 </v>
   <v>       0.11133371       0.61102015       0.31184479 </v>
   <v>       0.11114953       0.94445358       0.31174033 </v>
   <v>       0.11108742       0.27775409       0.31173664 </v>
   <v>       0.44435604       0.61102271       0.31210147 </v>
   <v>       0.44448779       0.94433189       0.31164646 </v>
   <v>       0.44435348       0.27800038       0.31184479 </v>
   <v>       0.88914498       0.72219443       0.37924881 </v>
   <v>       0.88882193       0.05548859       0.37919520 </v>
   <v>       0.88887171       0.38892466       0.37932829 </v>
   <v>       0.22228957       0.72205289       0.37976497 </v>
   <v>       0.22225799       0.05553838       0.37932829 </v>
   <v>       0.22221579       0.38888245       0.37942088 </v>
   <v>       0.55535423       0.72202090       0.37941594 </v>
   <v>       0.55552777       0.05581165       0.37924881 </v>
   <v>       0.55538622       0.38895623       0.37976497 </v>
   <v>       0.00036352       0.83293124       0.44694172 </v>
   <v>       0.00001965       0.16668631       0.44703569 </v>
   <v>      -0.00032102       0.50026110       0.44685775 </v>
   <v>       0.33341300       0.83374504       0.44702535 </v>
   <v>       0.33359443       0.16634565       0.44685775 </v>
   <v>       0.33321433       0.49988099       0.44785830 </v>
   <v>       0.66663592       0.83330259       0.44690352 </v>
   <v>       0.66626457       0.16703019       0.44694172 </v>
   <v>       0.66707838       0.50007967       0.44702535 </v>
   <v>       0.10997629       0.94577315       0.51502300 </v>
   <v>       0.11090862       0.27757528       0.51519793 </v>
   <v>       0.10998092       0.61114445       0.51508945 </v>
   <v>       0.44470249       0.94474699       0.51487547 </v>
   <v>       0.44447778       0.27664759       0.51508945 </v>
   <v>       0.44599740       0.61266407       0.51873786 </v>
   <v>       0.77770236       0.94436903       0.51491941 </v>
   <v>       0.77910648       0.27664295       0.51502300 </v>
   <v>       0.77808032       0.61136916       0.51487547 </v>
   <v>       0.38888889       0.55555556       0.55379593 </v>
  </varray>
 </structure>
</modeling>
