 254 254   0   0
  0.2268316E+02  0.1514622E-08  0.1514622E-08  0.2900000E-08  0.5000000E-15
   1.0000000000000000E-004
  CAR 
 NiAl                                    
      6.47415508    -32.64073535  301     -0.50152560      1.00000000
    -32.641  0.0000E+00  0.0000E+00
    -32.510  0.0000E+00  0.0000E+00
    -32.380  0.0000E+00  0.0000E+00
    -32.250  0.0000E+00  0.0000E+00
    -32.119  0.0000E+00  0.0000E+00
    -31.989  0.0000E+00  0.0000E+00
    -31.858  0.0000E+00  0.0000E+00
    -31.728  0.0000E+00  0.0000E+00
    -31.598  0.0000E+00  0.0000E+00
    -31.467  0.0000E+00  0.0000E+00
    -31.337  0.0000E+00  0.0000E+00
    -31.207  0.0000E+00  0.0000E+00
    -31.076  0.1077E-07  0.1404E-08
    -30.946  0.1374E+00  0.1791E-01
    -30.815  0.1377E+02  0.1813E+01
    -30.685  0.1433E+01  0.2000E+01
    -30.555  0.4228E-05  0.2000E+01
    -30.424  0.0000E+00  0.2000E+01
    -30.294  0.0000E+00  0.2000E+01
    -30.163  0.0000E+00  0.2000E+01
    -30.033  0.0000E+00  0.2000E+01
    -29.903  0.0000E+00  0.2000E+01
    -29.772  0.0000E+00  0.2000E+01
    -29.642  0.0000E+00  0.2000E+01
    -29.512  0.0000E+00  0.2000E+01
    -29.381  0.0000E+00  0.2000E+01
    -29.251  0.0000E+00  0.2000E+01
    -29.120  0.0000E+00  0.2000E+01
    -28.990  0.0000E+00  0.2000E+01
    -28.860  0.0000E+00  0.2000E+01
    -28.729  0.0000E+00  0.2000E+01
    -28.599  0.0000E+00  0.2000E+01
    -28.468  0.0000E+00  0.2000E+01
    -28.338  0.0000E+00  0.2000E+01
    -28.208  0.0000E+00  0.2000E+01
    -28.077  0.0000E+00  0.2000E+01
    -27.947  0.0000E+00  0.2000E+01
    -27.817  0.0000E+00  0.2000E+01
    -27.686  0.0000E+00  0.2000E+01
    -27.556  0.0000E+00  0.2000E+01
    -27.425  0.0000E+00  0.2000E+01
    -27.295  0.0000E+00  0.2000E+01
    -27.165  0.0000E+00  0.2000E+01
    -27.034  0.0000E+00  0.2000E+01
    -26.904  0.0000E+00  0.2000E+01
    -26.774  0.0000E+00  0.2000E+01
    -26.643  0.0000E+00  0.2000E+01
    -26.513  0.0000E+00  0.2000E+01
    -26.382  0.0000E+00  0.2000E+01
    -26.252  0.0000E+00  0.2000E+01
    -26.122  0.0000E+00  0.2000E+01
    -25.991  0.0000E+00  0.2000E+01
    -25.861  0.0000E+00  0.2000E+01
    -25.730  0.0000E+00  0.2000E+01
    -25.600  0.0000E+00  0.2000E+01
    -25.470  0.0000E+00  0.2000E+01
    -25.339  0.0000E+00  0.2000E+01
    -25.209  0.0000E+00  0.2000E+01
    -25.079  0.0000E+00  0.2000E+01
    -24.948  0.0000E+00  0.2000E+01
    -24.818  0.0000E+00  0.2000E+01
    -24.687  0.0000E+00  0.2000E+01
    -24.557  0.0000E+00  0.2000E+01
    -24.427  0.0000E+00  0.2000E+01
    -24.296  0.0000E+00  0.2000E+01
    -24.166  0.0000E+00  0.2000E+01
    -24.035  0.0000E+00  0.2000E+01
    -23.905  0.0000E+00  0.2000E+01
    -23.775  0.0000E+00  0.2000E+01
    -23.644  0.0000E+00  0.2000E+01
    -23.514  0.0000E+00  0.2000E+01
    -23.384  0.0000E+00  0.2000E+01
    -23.253  0.0000E+00  0.2000E+01
    -23.123  0.0000E+00  0.2000E+01
    -22.992  0.0000E+00  0.2000E+01
    -22.862  0.0000E+00  0.2000E+01
    -22.732  0.0000E+00  0.2000E+01
    -22.601  0.0000E+00  0.2000E+01
    -22.471  0.0000E+00  0.2000E+01
    -22.340  0.0000E+00  0.2000E+01
    -22.210  0.0000E+00  0.2000E+01
    -22.080  0.0000E+00  0.2000E+01
    -21.949  0.0000E+00  0.2000E+01
    -21.819  0.0000E+00  0.2000E+01
    -21.689  0.0000E+00  0.2000E+01
    -21.558  0.0000E+00  0.2000E+01
    -21.428  0.0000E+00  0.2000E+01
    -21.297  0.0000E+00  0.2000E+01
    -21.167  0.0000E+00  0.2000E+01
    -21.037  0.0000E+00  0.2000E+01
    -20.906  0.0000E+00  0.2000E+01
    -20.776  0.0000E+00  0.2000E+01
    -20.646  0.0000E+00  0.2000E+01
    -20.515  0.0000E+00  0.2000E+01
    -20.385  0.0000E+00  0.2000E+01
    -20.254  0.0000E+00  0.2000E+01
    -20.124  0.0000E+00  0.2000E+01
    -19.994  0.0000E+00  0.2000E+01
    -19.863  0.0000E+00  0.2000E+01
    -19.733  0.0000E+00  0.2000E+01
    -19.602  0.0000E+00  0.2000E+01
    -19.472  0.0000E+00  0.2000E+01
    -19.342  0.0000E+00  0.2000E+01
    -19.211  0.0000E+00  0.2000E+01
    -19.081  0.0000E+00  0.2000E+01
    -18.951  0.0000E+00  0.2000E+01
    -18.820  0.0000E+00  0.2000E+01
    -18.690  0.0000E+00  0.2000E+01
    -18.559  0.0000E+00  0.2000E+01
    -18.429  0.0000E+00  0.2000E+01
    -18.299  0.0000E+00  0.2000E+01
    -18.168  0.0000E+00  0.2000E+01
    -18.038  0.0000E+00  0.2000E+01
    -17.907  0.0000E+00  0.2000E+01
    -17.777  0.0000E+00  0.2000E+01
    -17.647  0.0000E+00  0.2000E+01
    -17.516  0.0000E+00  0.2000E+01
    -17.386  0.0000E+00  0.2000E+01
    -17.256  0.0000E+00  0.2000E+01
    -17.125  0.0000E+00  0.2000E+01
    -16.995  0.0000E+00  0.2000E+01
    -16.864  0.0000E+00  0.2000E+01
    -16.734  0.0000E+00  0.2000E+01
    -16.604  0.0000E+00  0.2000E+01
    -16.473  0.0000E+00  0.2000E+01
    -16.343  0.0000E+00  0.2000E+01
    -16.212  0.0000E+00  0.2000E+01
    -16.082  0.0000E+00  0.2000E+01
    -15.952  0.0000E+00  0.2000E+01
    -15.821  0.0000E+00  0.2000E+01
    -15.691  0.0000E+00  0.2000E+01
    -15.561  0.0000E+00  0.2000E+01
    -15.430  0.0000E+00  0.2000E+01
    -15.300  0.0000E+00  0.2000E+01
    -15.169  0.0000E+00  0.2000E+01
    -15.039  0.0000E+00  0.2000E+01
    -14.909  0.6527E-09  0.2000E+01
    -14.778  0.3876E-01  0.2005E+01
    -14.648  0.1241E+02  0.3623E+01
    -14.518  0.2888E+01  0.4000E+01
    -14.387  0.3707E-04  0.4000E+01
    -14.257  0.0000E+00  0.4000E+01
    -14.126  0.0000E+00  0.4000E+01
    -13.996  0.0000E+00  0.4000E+01
    -13.866  0.0000E+00  0.4000E+01
    -13.735  0.0000E+00  0.4000E+01
    -13.605  0.0000E+00  0.4000E+01
    -13.474  0.0000E+00  0.4000E+01
    -13.344  0.0000E+00  0.4000E+01
    -13.214  0.0000E+00  0.4000E+01
    -13.083  0.0000E+00  0.4000E+01
    -12.953  0.0000E+00  0.4000E+01
    -12.823  0.0000E+00  0.4000E+01
    -12.692  0.0000E+00  0.4000E+01
    -12.562  0.0000E+00  0.4000E+01
    -12.431  0.0000E+00  0.4000E+01
    -12.301  0.0000E+00  0.4000E+01
    -12.171  0.0000E+00  0.4000E+01
    -12.040  0.0000E+00  0.4000E+01
    -11.910  0.0000E+00  0.4000E+01
    -11.779  0.0000E+00  0.4000E+01
    -11.649  0.0000E+00  0.4000E+01
    -11.519  0.0000E+00  0.4000E+01
    -11.388  0.0000E+00  0.4000E+01
    -11.258  0.0000E+00  0.4000E+01
    -11.128  0.0000E+00  0.4000E+01
    -10.997  0.0000E+00  0.4000E+01
    -10.867  0.0000E+00  0.4000E+01
    -10.736  0.0000E+00  0.4000E+01
    -10.606  0.0000E+00  0.4000E+01
    -10.476  0.0000E+00  0.4000E+01
    -10.345  0.0000E+00  0.4000E+01
    -10.215  0.0000E+00  0.4000E+01
    -10.084  0.0000E+00  0.4000E+01
     -9.954  0.0000E+00  0.4000E+01
     -9.824  0.1191E-08  0.4000E+01
     -9.693  0.7377E-01  0.4010E+01
     -9.563  0.2468E+02  0.7227E+01
     -9.433  0.5928E+01  0.8000E+01
     -9.302  0.8156E-04  0.8000E+01
     -9.172  0.3619E-02  0.8000E+01
     -9.041  0.8008E+01  0.9045E+01
     -8.911  0.1139E+02  0.1053E+02
     -8.781  0.2081E+02  0.1324E+02
     -8.650  0.1969E+01  0.1350E+02
     -8.520  0.2407E+01  0.1381E+02
     -8.390  0.9367E+01  0.1504E+02
     -8.259  0.3580E+02  0.1970E+02
     -8.129  0.1964E+02  0.2226E+02
     -7.998  0.5641E+01  0.2300E+02
     -7.868  0.9865E+01  0.2429E+02
     -7.738  0.1388E+02  0.2610E+02
     -7.607  0.2324E+02  0.2913E+02
     -7.477  0.5360E+02  0.3611E+02
     -7.346  0.1829E+02  0.3850E+02
     -7.216  0.2362E-01  0.3850E+02
     -7.086  0.2439E+02  0.4168E+02
     -6.955  0.6669E+02  0.5038E+02
     -6.825  0.2010E+02  0.5300E+02
     -6.695  0.7198E+01  0.5394E+02
     -6.564  0.2504E+02  0.5720E+02
     -6.434  0.4022E+02  0.6245E+02
     -6.303  0.5913E+02  0.7016E+02
     -6.173  0.3738E+02  0.7503E+02
     -6.043  0.3904E+02  0.8012E+02
     -5.912  0.7589E+02  0.9001E+02
     -5.782  0.4582E+02  0.9599E+02
     -5.651  0.1889E+01  0.9624E+02
     -5.521  0.2121E+02  0.9900E+02
     -5.391  0.8376E+02  0.1099E+03
     -5.260  0.1070E+03  0.1239E+03
     -5.130  0.6233E+02  0.1320E+03
     -5.000  0.1073E+03  0.1460E+03
     -4.869  0.8530E+02  0.1571E+03
     -4.739  0.6614E+02  0.1657E+03
     -4.608  0.2550E+03  0.1990E+03
     -4.478  0.1810E+03  0.2226E+03
     -4.348  0.2357E+03  0.2533E+03
     -4.217  0.2858E+03  0.2906E+03
     -4.087  0.2603E+03  0.3245E+03
     -3.956  0.2332E+03  0.3549E+03
     -3.826  0.4295E+03  0.4109E+03
     -3.696  0.5156E+03  0.4781E+03
     -3.565  0.4098E+03  0.5316E+03
     -3.435  0.4548E+03  0.5909E+03
     -3.305  0.3537E+03  0.6370E+03
     -3.174  0.3591E+03  0.6838E+03
     -3.044  0.5133E+03  0.7507E+03
     -2.913  0.3818E+03  0.8005E+03
     -2.783  0.5608E+03  0.8736E+03
     -2.653  0.5052E+03  0.9395E+03
     -2.522  0.5454E+03  0.1011E+04
     -2.392  0.6180E+03  0.1091E+04
     -2.262  0.7218E+03  0.1185E+04
     -2.131  0.9183E+03  0.1305E+04
     -2.001  0.7941E+03  0.1409E+04
     -1.870  0.9160E+03  0.1528E+04
     -1.740  0.5723E+03  0.1603E+04
     -1.610  0.5926E+03  0.1680E+04
     -1.479  0.5329E+03  0.1749E+04
     -1.349  0.7137E+03  0.1842E+04
     -1.218  0.7652E+03  0.1942E+04
     -1.088  0.5105E+03  0.2009E+04
     -0.958  0.7649E+03  0.2108E+04
     -0.827  0.8598E+03  0.2221E+04
     -0.697  0.6567E+03  0.2306E+04
     -0.567  0.1060E+04  0.2444E+04
     -0.436  0.1191E+04  0.2600E+04
     -0.306  0.4509E+03  0.2658E+04
     -0.175  0.1408E+03  0.2677E+04
     -0.045  0.1440E+03  0.2696E+04
      0.085  0.1621E+03  0.2717E+04
      0.216  0.4195E+02  0.2722E+04
      0.346  0.4889E+02  0.2729E+04
      0.477  0.9235E+02  0.2741E+04
      0.607  0.8959E+02  0.2752E+04
      0.737  0.9310E+02  0.2764E+04
      0.868  0.8005E+02  0.2775E+04
      0.998  0.1406E+03  0.2793E+04
      1.128  0.6877E+02  0.2802E+04
      1.259  0.2924E+02  0.2806E+04
      1.389  0.1238E+03  0.2822E+04
      1.520  0.2931E+02  0.2826E+04
      1.650  0.8574E+02  0.2837E+04
      1.780  0.9312E+02  0.2849E+04
      1.911  0.7705E+02  0.2859E+04
      2.041  0.9789E+02  0.2872E+04
      2.172  0.4020E+02  0.2877E+04
      2.302  0.1040E+03  0.2891E+04
      2.432  0.1070E+03  0.2905E+04
      2.563  0.2833E+02  0.2908E+04
      2.693  0.6137E+02  0.2916E+04
      2.823  0.1140E+02  0.2918E+04
      2.954  0.4814E+02  0.2924E+04
      3.084  0.1536E+03  0.2944E+04
      3.215  0.1545E+03  0.2964E+04
      3.345  0.2345E+02  0.2967E+04
      3.475  0.3944E+02  0.2973E+04
      3.606  0.8365E+02  0.2983E+04
      3.736  0.5189E+02  0.2990E+04
      3.866  0.4037E+02  0.2996E+04
      3.997  0.2014E+02  0.2998E+04
      4.127  0.1233E+02  0.3000E+04
      4.258  0.6673E+02  0.3008E+04
      4.388  0.4627E+02  0.3014E+04
      4.518  0.7892E+02  0.3025E+04
      4.649  0.6035E+02  0.3033E+04
      4.779  0.4102E+02  0.3038E+04
      4.910  0.1190E+00  0.3038E+04
      5.040  0.9138E-08  0.3038E+04
      5.170  0.0000E+00  0.3038E+04
      5.301  0.0000E+00  0.3038E+04
      5.431  0.0000E+00  0.3038E+04
      5.561  0.0000E+00  0.3038E+04
      5.692  0.0000E+00  0.3038E+04
      5.822  0.0000E+00  0.3038E+04
      5.953  0.0000E+00  0.3038E+04
      6.083  0.0000E+00  0.3038E+04
      6.213  0.0000E+00  0.3038E+04
      6.344  0.0000E+00  0.3038E+04
      6.474  0.0000E+00  0.3038E+04
