  254  254    1    1
  0.2268316E+02  0.1514622E-08  0.1514622E-08  0.2900000E-08  0.5000000E-15
   1.0000000000000000E-004
  CAR 
 NiAl                                    
   2532      4   1519
 
  0.1262379E-14  0.1262379E-14  0.1262379E-14  0.2500000E+00
    1      -30.862786   1.000000
    2      -14.679368   1.000000
    3       -9.595604   1.000000
    4       -9.593477   1.000000
    5       -9.060909   1.000000
    6       -9.029731   1.000000
    7       -8.531424   1.000000
    8       -8.153142   1.000000
    9       -8.153139   1.000000
   10       -8.153132   1.000000
   11       -8.153131   1.000000
   12       -8.153123   1.000000
   13       -8.153121   1.000000
   14       -7.702716   1.000000
   15       -7.647145   1.000000
   16       -7.647137   1.000000
   17       -7.647131   1.000000
   18       -7.647128   1.000000
   19       -7.647122   1.000000
   20       -7.647118   1.000000
   21       -6.859058   1.000000
   22       -6.859032   1.000000
   23       -6.859020   1.000000
   24       -6.859008   1.000000
   25       -6.859005   1.000000
   26       -6.859002   1.000000
   27       -6.672637   1.000000
   28       -6.512702   1.000000
   29       -6.512698   1.000000
   30       -6.512696   1.000000
   31       -6.512691   1.000000
   32       -6.512671   1.000000
   33       -6.512664   1.000000
   34       -6.090058   1.000000
   35       -6.090055   1.000000
   36       -6.090050   1.000000
   37       -6.090049   1.000000
   38       -6.090028   1.000000
   39       -6.090024   1.000000
   40       -5.887393   1.000000
   41       -5.887345   1.000000
   42       -5.887323   1.000000
   43       -5.887313   1.000000
   44       -5.887301   1.000000
   45       -5.887300   1.000000
   46       -5.882061   1.000000
   47       -5.882048   1.000000
   48       -5.882044   1.000000
   49       -5.882040   1.000000
   50       -5.882036   1.000000
   51       -5.882033   1.000000
   52       -5.647987   1.000000
   53       -5.547031   1.000000
   54       -5.547021   1.000000
   55       -5.547014   1.000000
   56       -5.547008   1.000000
   57       -5.547006   1.000000
   58       -5.546998   1.000000
   59       -5.457055   1.000000
   60       -5.457048   1.000000
   61       -5.457041   1.000000
   62       -5.457038   1.000000
   63       -5.457026   1.000000
   64       -5.457021   1.000000
   65       -5.089688   1.000000
   66       -5.089681   1.000000
   67       -5.089670   1.000000
   68       -5.089668   1.000000
   69       -5.089647   1.000000
   70       -5.089639   1.000000
   71       -4.992406   1.000000
   72       -4.936690   1.000000
   73       -4.936616   1.000000
   74       -4.936596   1.000000
   75       -4.936592   1.000000
   76       -4.936572   1.000000
   77       -4.936560   1.000000
   78       -4.802044   1.000000
   79       -4.744214   1.000000
   80       -4.744214   1.000000
   81       -4.744154   1.000000
   82       -4.725947   1.000000
   83       -4.725939   1.000000
   84       -4.725928   1.000000
   85       -4.725926   1.000000
   86       -4.725921   1.000000
   87       -4.725917   1.000000
   88       -4.621870   1.000000
   89       -4.621864   1.000000
   90       -4.621857   1.000000
   91       -4.621855   1.000000
   92       -4.621793   1.000000
   93       -4.621790   1.000000
   94       -4.588115   1.000000
   95       -4.588115   1.000000
   96       -4.588018   1.000000
   97       -4.512013   1.000000
   98       -4.512008   1.000000
   99       -4.512006   1.000000
  100       -4.512002   1.000000
  101       -4.511969   1.000000
  102       -4.511959   1.000000
  103       -4.511954   1.000000
  104       -4.511952   1.000000
  105       -4.511944   1.000000
  106       -4.511942   1.000000
  107       -4.511939   1.000000
  108       -4.511936   1.000000
  109       -4.466146   1.000000
  110       -4.466144   1.000000
  111       -4.466077   1.000000
  112       -4.379713   1.000000
  113       -4.379713   1.000000
  114       -4.379612   1.000000
  115       -4.358388   1.000000
  116       -4.358344   1.000000
  117       -4.358334   1.000000
  118       -4.358329   1.000000
  119       -4.358300   1.000000
  120       -4.358297   1.000000
  121       -4.313520   1.000000
  122       -4.313509   1.000000
  123       -4.313508   1.000000
  124       -4.313505   1.000000
  125       -4.313480   1.000000
  126       -4.313477   1.000000
  127       -4.313474   1.000000
  128       -4.313468   1.000000
  129       -4.313440   1.000000
  130       -4.313438   1.000000
  131       -4.313436   1.000000
  132       -4.313433   1.000000
  133       -4.279026   1.000000
  134       -4.279022   1.000000
  135       -4.279016   1.000000
  136       -4.279013   1.000000
  137       -4.278993   1.000000
  138       -4.278991   1.000000
  139       -4.278986   1.000000
  140       -4.278985   1.000000
  141       -4.278972   1.000000
  142       -4.278961   1.000000
  143       -4.278959   1.000000
  144       -4.278955   1.000000
  145       -4.234310   1.000000
  146       -4.234292   1.000000
  147       -4.234289   1.000000
  148       -4.234280   1.000000
  149       -4.234260   1.000000
  150       -4.234252   1.000000
  151       -4.198015   1.000000
  152       -4.198011   1.000000
  153       -4.198006   1.000000
  154       -4.198001   1.000000
  155       -4.197900   1.000000
  156       -4.197898   1.000000
  157       -4.178044   1.000000
  158       -4.178042   1.000000
  159       -4.177939   1.000000
  160       -4.141007   1.000000
  161       -4.141006   1.000000
  162       -4.141004   1.000000
  163       -4.141002   1.000000
  164       -4.140993   1.000000
  165       -4.140990   1.000000
  166       -4.140984   1.000000
  167       -4.140982   1.000000
  168       -4.140952   1.000000
  169       -4.140946   1.000000
  170       -4.140944   1.000000
  171       -4.140941   1.000000
  172       -4.071160   1.000000
  173       -4.071151   1.000000
  174       -4.071136   1.000000
  175       -4.071133   1.000000
  176       -4.071126   1.000000
  177       -4.071121   1.000000
  178       -4.031744   1.000000
  179       -4.031743   1.000000
  180       -4.031574   1.000000
  181       -3.963627   1.000000
  182       -3.963626   1.000000
  183       -3.963514   1.000000
  184       -3.941077   1.000000
  185       -3.941075   1.000000
  186       -3.941071   1.000000
  187       -3.941069   1.000000
  188       -3.941063   1.000000
  189       -3.941063   1.000000
  190       -3.941058   1.000000
  191       -3.941056   1.000000
  192       -3.941012   1.000000
  193       -3.941011   1.000000
  194       -3.941006   1.000000
  195       -3.941004   1.000000
  196       -3.878064   1.000000
  197       -3.878063   1.000000
  198       -3.877925   1.000000
  199       -3.823609   1.000000
  200       -3.823608   1.000000
  201       -3.823460   1.000000
  202       -3.821264   1.000000
  203       -3.821259   1.000000
  204       -3.821250   1.000000
  205       -3.821248   1.000000
  206       -3.821111   1.000000
  207       -3.821104   1.000000
  208       -3.751771   1.000000
  209       -3.751769   1.000000
  210       -3.751763   1.000000
  211       -3.751756   1.000000
  212       -3.751754   1.000000
  213       -3.751752   1.000000
  214       -3.751745   1.000000
  215       -3.751743   1.000000
  216       -3.751586   1.000000
  217       -3.751574   1.000000
  218       -3.751561   1.000000
  219       -3.751556   1.000000
  220       -3.745642   1.000000
  221       -3.745640   1.000000
  222       -3.745627   1.000000
  223       -3.745626   1.000000
  224       -3.745495   1.000000
  225       -3.745487   1.000000
  226       -3.692688   1.000000
  227       -3.692686   1.000000
  228       -3.692682   1.000000
  229       -3.692678   1.000000
  230       -3.692652   1.000000
  231       -3.692651   1.000000
  232       -3.692648   1.000000
  233       -3.692646   1.000000
  234       -3.692618   1.000000
  235       -3.692611   1.000000
  236       -3.692605   1.000000
  237       -3.692601   1.000000
  238       -3.669737   1.000000
  239       -3.669733   1.000000
  240       -3.669685   1.000000
  241       -3.669681   1.000000
  242       -3.669676   1.000000
  243       -3.669672   1.000000
  244       -3.630234   1.000000
  245       -3.630215   1.000000
  246       -3.630211   1.000000
  247       -3.630203   1.000000
  248       -3.630115   1.000000
  249       -3.630101   1.000000
  250       -3.626337   1.000000
  251       -3.626335   1.000000
  252       -3.626279   1.000000
  253       -3.626277   1.000000
  254       -3.618113   1.000000
  255       -3.618109   1.000000
  256       -3.563538   1.000000
  257       -3.563535   1.000000
  258       -3.563531   1.000000
  259       -3.563529   1.000000
  260       -3.563523   1.000000
  261       -3.563517   1.000000
  262       -3.563515   1.000000
  263       -3.563514   1.000000
  264       -3.563371   1.000000
  265       -3.563363   1.000000
  266       -3.563353   1.000000
  267       -3.563348   1.000000
  268       -3.554888   1.000000
  269       -3.554887   1.000000
  270       -3.554784   1.000000
  271       -3.530368   1.000000
  272       -3.530367   1.000000
  273       -3.530340   1.000000
  274       -3.530338   1.000000
  275       -3.508139   1.000000
  276       -3.508133   1.000000
  277       -3.508126   1.000000
  278       -3.508119   1.000000
  279       -3.507947   1.000000
  280       -3.507938   1.000000
  281       -3.496635   1.000000
  282       -3.496633   1.000000
  283       -3.486451   1.000000
  284       -3.486449   1.000000
  285       -3.486370   1.000000
  286       -3.486368   1.000000
  287       -3.484514   1.000000
  288       -3.484512   1.000000
  289       -3.481385   1.000000
  290       -3.481380   1.000000
  291       -3.481355   1.000000
  292       -3.481353   1.000000
  293       -3.481348   1.000000
  294       -3.481344   1.000000
  295       -3.412685   1.000000
  296       -3.412678   1.000000
  297       -3.412628   1.000000
  298       -3.412628   1.000000
  299       -3.405230   1.000000
  300       -3.405230   1.000000
  301       -3.405221   1.000000
  302       -3.405220   1.000000
  303       -3.405148   1.000000
  304       -3.405142   1.000000
  305       -3.405137   1.000000
  306       -3.405131   1.000000
  307       -3.405107   1.000000
  308       -3.405104   1.000000
  309       -3.405096   1.000000
  310       -3.405090   1.000000
  311       -3.333553   1.000000
  312       -3.333549   1.000000
  313       -3.333489   1.000000
  314       -3.333486   1.000000
  315       -3.333485   1.000000
  316       -3.333482   1.000000
  317       -3.297437   1.000000
  318       -3.297432   1.000000
  319       -3.297426   1.000000
  320       -3.297421   1.000000
  321       -3.297403   1.000000
  322       -3.297399   1.000000
  323       -3.297395   1.000000
  324       -3.297389   1.000000
  325       -3.297285   1.000000
  326       -3.297282   1.000000
  327       -3.297271   1.000000
  328       -3.297268   1.000000
  329       -3.286845   1.000000
  330       -3.286842   1.000000
  331       -3.286774   1.000000
  332       -3.286773   1.000000
  333       -3.286771   1.000000
  334       -3.286769   1.000000
  335       -3.279747   1.000000
  336       -3.279745   1.000000
  337       -3.279727   1.000000
  338       -3.279722   1.000000
  339       -3.279620   1.000000
  340       -3.279600   1.000000
  341       -3.191944   1.000000
  342       -3.191942   1.000000
  343       -3.191914   1.000000
  344       -3.151825   1.000000
  345       -3.151815   1.000000
  346       -3.151749   1.000000
  347       -3.151747   1.000000
  348       -3.151742   1.000000
  349       -3.151738   1.000000
  350       -3.140399   1.000000
  351       -3.140394   1.000000
  352       -3.117564   1.000000
  353       -3.117557   1.000000
  354       -3.117556   1.000000
  355       -3.117547   1.000000
  356       -3.117500   1.000000
  357       -3.117494   1.000000
  358       -3.117490   1.000000
  359       -3.117485   1.000000
  360       -3.117472   1.000000
  361       -3.117468   1.000000
  362       -3.117467   1.000000
  363       -3.117458   1.000000
  364       -3.108054   1.000000
  365       -3.108049   1.000000
  366       -3.046536   1.000000
  367       -3.046530   1.000000
  368       -3.046507   1.000000
  369       -3.046503   1.000000
  370       -3.046468   1.000000
  371       -3.046450   1.000000
  372       -3.020848   1.000000
  373       -3.020841   1.000000
  374       -3.020756   1.000000
  375       -3.020754   1.000000
  376       -3.020751   1.000000
  377       -3.020749   1.000000
  378       -3.020449   1.000000
  379       -3.020441   1.000000
  380       -3.020425   1.000000
  381       -3.020421   1.000000
  382       -3.020343   1.000000
  383       -3.020321   1.000000
  384       -2.968956   1.000000
  385       -2.968954   1.000000
  386       -2.968946   1.000000
  387       -2.968944   1.000000
  388       -2.968926   1.000000
  389       -2.968919   1.000000
  390       -2.968912   1.000000
  391       -2.968906   1.000000
  392       -2.968899   1.000000
  393       -2.968892   1.000000
  394       -2.968887   1.000000
  395       -2.968884   1.000000
  396       -2.913577   1.000000
  397       -2.913571   1.000000
  398       -2.913475   1.000000
  399       -2.913472   1.000000
  400       -2.913471   1.000000
  401       -2.913469   1.000000
  402       -2.855088   1.000000
  403       -2.855084   1.000000
  404       -2.854987   1.000000
  405       -2.854980   1.000000
  406       -2.854963   1.000000
  407       -2.854962   1.000000
  408       -2.844450   1.000000
  409       -2.844446   1.000000
  410       -2.844441   1.000000
  411       -2.844434   1.000000
  412       -2.844394   1.000000
  413       -2.844390   1.000000
  414       -2.818090   1.000000
  415       -2.818083   1.000000
  416       -2.818080   1.000000
  417       -2.818072   1.000000
  418       -2.818061   1.000000
  419       -2.818055   1.000000
  420       -2.812008   1.000000
  421       -2.812004   1.000000
  422       -2.811896   1.000000
  423       -2.811891   1.000000
  424       -2.811883   1.000000
  425       -2.811880   1.000000
  426       -2.788589   1.000000
  427       -2.788580   1.000000
  428       -2.788578   1.000000
  429       -2.788574   1.000000
  430       -2.788572   1.000000
  431       -2.788568   1.000000
  432       -2.784295   1.000000
  433       -2.784294   1.000000
  434       -2.784286   1.000000
  435       -2.784284   1.000000
  436       -2.784249   1.000000
  437       -2.784248   1.000000
  438       -2.784240   1.000000
  439       -2.784237   1.000000
  440       -2.784213   1.000000
  441       -2.784209   1.000000
  442       -2.784206   1.000000
  443       -2.784203   1.000000
  444       -2.721015   1.000000
  445       -2.721013   1.000000
  446       -2.720969   1.000000
  447       -2.711083   1.000000
  448       -2.711081   1.000000
  449       -2.711076   1.000000
  450       -2.711073   1.000000
  451       -2.711067   1.000000
  452       -2.711066   1.000000
  453       -2.711060   1.000000
  454       -2.711055   1.000000
  455       -2.711052   1.000000
  456       -2.711050   1.000000
  457       -2.711043   1.000000
  458       -2.711041   1.000000
  459       -2.707503   1.000000
  460       -2.707498   1.000000
  461       -2.707492   1.000000
  462       -2.707487   1.000000
  463       -2.707398   1.000000
  464       -2.707384   1.000000
  465       -2.669989   1.000000
  466       -2.669984   1.000000
  467       -2.669902   1.000000
  468       -2.669897   1.000000
  469       -2.620158   1.000000
  470       -2.620150   1.000000
  471       -2.620145   1.000000
  472       -2.620142   1.000000
  473       -2.620118   1.000000
  474       -2.620115   1.000000
  475       -2.616784   1.000000
  476       -2.616780   1.000000
  477       -2.614513   1.000000
  478       -2.614505   1.000000
  479       -2.614497   1.000000
  480       -2.614490   1.000000
  481       -2.614466   1.000000
  482       -2.614458   1.000000
  483       -2.614071   1.000000
  484       -2.614058   1.000000
  485       -2.613952   1.000000
  486       -2.613949   1.000000
  487       -2.613940   1.000000
  488       -2.613936   1.000000
  489       -2.608348   1.000000
  490       -2.608342   1.000000
  491       -2.608340   1.000000
  492       -2.608336   1.000000
  493       -2.608320   1.000000
  494       -2.608319   1.000000
  495       -2.608312   1.000000
  496       -2.608310   1.000000
  497       -2.608307   1.000000
  498       -2.608304   1.000000
  499       -2.608298   1.000000
  500       -2.608293   1.000000
  501       -2.556351   1.000000
  502       -2.556326   1.000000
  503       -2.556322   1.000000
  504       -2.556313   1.000000
  505       -2.556218   1.000000
  506       -2.556209   1.000000
  507       -2.548231   1.000000
  508       -2.548230   1.000000
  509       -2.548184   1.000000
  510       -2.548181   1.000000
  511       -2.548178   1.000000
  512       -2.548176   1.000000
  513       -2.522360   1.000000
  514       -2.522359   1.000000
  515       -2.522315   1.000000
  516       -2.522307   1.000000
  517       -2.512210   1.000000
  518       -2.494498   1.000000
  519       -2.494486   1.000000
  520       -2.494410   1.000000
  521       -2.494405   1.000000
  522       -2.494393   1.000000
  523       -2.494389   1.000000
  524       -2.472914   1.000000
  525       -2.449351   1.000000
  526       -2.449345   1.000000
  527       -2.449340   1.000000
  528       -2.449338   1.000000
  529       -2.449312   1.000000
  530       -2.449309   1.000000
  531       -2.449299   1.000000
  532       -2.449295   1.000000
  533       -2.449285   1.000000
  534       -2.449283   1.000000
  535       -2.449276   1.000000
  536       -2.449273   1.000000
  537       -2.433240   1.000000
  538       -2.433223   1.000000
  539       -2.433167   1.000000
  540       -2.433163   1.000000
  541       -2.433135   1.000000
  542       -2.433132   1.000000
  543       -2.406155   1.000000
  544       -2.406153   1.000000
  545       -2.406010   1.000000
  546       -2.391391   1.000000
  547       -2.391358   1.000000
  548       -2.391348   1.000000
  549       -2.391330   1.000000
  550       -2.391232   1.000000
  551       -2.391222   1.000000
  552       -2.377466   1.000000
  553       -2.377461   1.000000
  554       -2.377449   1.000000
  555       -2.377446   1.000000
  556       -2.377413   1.000000
  557       -2.377409   1.000000
  558       -2.377405   1.000000
  559       -2.377398   1.000000
  560       -2.377396   1.000000
  561       -2.377390   1.000000
  562       -2.377379   1.000000
  563       -2.377376   1.000000
  564       -2.368945   1.000000
  565       -2.368930   1.000000
  566       -2.368888   1.000000
  567       -2.368887   1.000000
  568       -2.368868   1.000000
  569       -2.368865   1.000000
  570       -2.367490   1.000000
  571       -2.367412   1.000000
  572       -2.367411   1.000000
  573       -2.317074   1.000000
  574       -2.317068   1.000000
  575       -2.317064   1.000000
  576       -2.317061   1.000000
  577       -2.316979   1.000000
  578       -2.316978   1.000000
  579       -2.315451   1.000000
  580       -2.315286   1.000000
  581       -2.313852   1.000000
  582       -2.313633   1.000000
  583       -2.302244   1.000000
  584       -2.302240   1.000000
  585       -2.302226   1.000000
  586       -2.302218   1.000000
  587       -2.302090   1.000000
  588       -2.302079   1.000000
  589       -2.284536   1.000000
  590       -2.273750   1.000000
  591       -2.273749   1.000000
  592       -2.273744   1.000000
  593       -2.273743   1.000000
  594       -2.273734   1.000000
  595       -2.273732   1.000000
  596       -2.260282   1.000000
  597       -2.260277   1.000000
  598       -2.260268   1.000000
  599       -2.260266   1.000000
  600       -2.260222   1.000000
  601       -2.260211   1.000000
  602       -2.255140   1.000000
  603       -2.255139   1.000000
  604       -2.254960   1.000000
  605       -2.241317   1.000000
  606       -2.241309   1.000000
  607       -2.241245   1.000000
  608       -2.241233   1.000000
  609       -2.241229   1.000000
  610       -2.241223   1.000000
  611       -2.225717   1.000000
  612       -2.225497   1.000000
  613       -2.201015   1.000000
  614       -2.201014   1.000000
  615       -2.200986   1.000000
  616       -2.196981   1.000000
  617       -2.196969   1.000000
  618       -2.196965   1.000000
  619       -2.196951   1.000000
  620       -2.196873   1.000000
  621       -2.196864   1.000000
  622       -2.196442   1.000000
  623       -2.180959   1.000000
  624       -2.180781   1.000000
  625       -2.166422   1.000000
  626       -2.166416   1.000000
  627       -2.166331   1.000000
  628       -2.166318   1.000000
  629       -2.166314   1.000000
  630       -2.166307   1.000000
  631       -2.160105   1.000000
  632       -2.160102   1.000000
  633       -2.160090   1.000000
  634       -2.142824   1.000000
  635       -2.142816   1.000000
  636       -2.142814   1.000000
  637       -2.142813   1.000000
  638       -2.142667   1.000000
  639       -2.142664   1.000000
  640       -2.131575   1.000000
  641       -2.131499   1.000000
  642       -2.131497   1.000000
  643       -2.119071   1.000000
  644       -2.119034   1.000000
  645       -2.119022   1.000000
  646       -2.118961   1.000000
  647       -2.118952   1.000000
  648       -2.118851   1.000000
  649       -2.114724   1.000000
  650       -2.114717   1.000000
  651       -2.114708   1.000000
  652       -2.114705   1.000000
  653       -2.114701   1.000000
  654       -2.114690   1.000000
  655       -2.114685   1.000000
  656       -2.114684   1.000000
  657       -2.114680   1.000000
  658       -2.114678   1.000000
  659       -2.114671   1.000000
  660       -2.114667   1.000000
  661       -2.105382   1.000000
  662       -2.105372   1.000000
  663       -2.105366   1.000000
  664       -2.105363   1.000000
  665       -2.105256   1.000000
  666       -2.105251   1.000000
  667       -2.099949   1.000000
  668       -2.099945   1.000000
  669       -2.099943   1.000000
  670       -2.099937   1.000000
  671       -2.099820   1.000000
  672       -2.099817   1.000000
  673       -2.053576   1.000000
  674       -2.053567   1.000000
  675       -2.053560   1.000000
  676       -2.053550   1.000000
  677       -2.053422   1.000000
  678       -2.053414   1.000000
  679       -2.049345   1.000000
  680       -2.031313   1.000000
  681       -2.031309   1.000000
  682       -2.031241   1.000000
  683       -2.031236   1.000000
  684       -2.031231   1.000000
  685       -2.031225   1.000000
  686       -2.007241   1.000000
  687       -2.007241   1.000000
  688       -2.007166   1.000000
  689       -2.007159   1.000000
  690       -2.002037   1.000000
  691       -2.002023   1.000000
  692       -2.002013   1.000000
  693       -2.001995   1.000000
  694       -2.001983   1.000000
  695       -2.001979   1.000000
  696       -2.001963   1.000000
  697       -2.001963   1.000000
  698       -2.001930   1.000000
  699       -2.001929   1.000000
  700       -2.001924   1.000000
  701       -2.001921   1.000000
  702       -1.996128   1.000000
  703       -1.995922   1.000000
  704       -1.987249   1.000000
  705       -1.987248   1.000000
  706       -1.987216   1.000000
  707       -1.987209   1.000000
  708       -1.987200   1.000000
  709       -1.987196   1.000000
  710       -1.987147   1.000000
  711       -1.987135   1.000000
  712       -1.987132   1.000000
  713       -1.987131   1.000000
  714       -1.987122   1.000000
  715       -1.987116   1.000000
  716       -1.984210   1.000000
  717       -1.983993   1.000000
  718       -1.961398   1.000000
  719       -1.961391   1.000000
  720       -1.961247   1.000000
  721       -1.961238   1.000000
  722       -1.961229   1.000000
  723       -1.961225   1.000000
  724       -1.937915   1.000000
  725       -1.937908   1.000000
  726       -1.937900   1.000000
  727       -1.937893   1.000000
  728       -1.937839   1.000000
  729       -1.937830   1.000000
  730       -1.915735   1.000000
  731       -1.915732   1.000000
  732       -1.915723   1.000000
  733       -1.915715   1.000000
  734       -1.915688   1.000000
  735       -1.915684   1.000000
  736       -1.915680   1.000000
  737       -1.915672   1.000000
  738       -1.915658   1.000000
  739       -1.915647   1.000000
  740       -1.915641   1.000000
  741       -1.915637   1.000000
  742       -1.871720   1.000000
  743       -1.871713   1.000000
  744       -1.871565   1.000000
  745       -1.871561   1.000000
  746       -1.871548   1.000000
  747       -1.871547   1.000000
  748       -1.864695   1.000000
  749       -1.864654   1.000000
  750       -1.864650   1.000000
  751       -1.864647   1.000000
  752       -1.864644   1.000000
  753       -1.864632   1.000000
  754       -1.816651   1.000000
  755       -1.816646   1.000000
  756       -1.816636   1.000000
  757       -1.816626   1.000000
  758       -1.816618   1.000000
  759       -1.816610   1.000000
  760       -1.816604   1.000000
  761       -1.816599   1.000000
  762       -1.816593   1.000000
  763       -1.816590   1.000000
  764       -1.816586   1.000000
  765       -1.816583   1.000000
  766       -1.812733   1.000000
  767       -1.812728   1.000000
  768       -1.812684   1.000000
  769       -1.812680   1.000000
  770       -1.812672   1.000000
  771       -1.812668   1.000000
  772       -1.806114   1.000000
  773       -1.806111   1.000000
  774       -1.806050   1.000000
  775       -1.806047   1.000000
  776       -1.806038   1.000000
  777       -1.806035   1.000000
  778       -1.774024   1.000000
  779       -1.773944   1.000000
  780       -1.773941   1.000000
  781       -1.770140   1.000000
  782       -1.770134   1.000000
  783       -1.770011   1.000000
  784       -1.770002   1.000000
  785       -1.769993   1.000000
  786       -1.769990   1.000000
  787       -1.751418   1.000000
  788       -1.751394   1.000000
  789       -1.751392   1.000000
  790       -1.751346   1.000000
  791       -1.751337   1.000000
  792       -1.751331   1.000000
  793       -1.745303   1.000000
  794       -1.745298   1.000000
  795       -1.745165   1.000000
  796       -1.745161   1.000000
  797       -1.745152   1.000000
  798       -1.745146   1.000000
  799       -1.724545   1.000000
  800       -1.724540   1.000000
  801       -1.724464   1.000000
  802       -1.724457   1.000000
  803       -1.724454   1.000000
  804       -1.724447   1.000000
  805       -1.716686   1.000000
  806       -1.716659   1.000000
  807       -1.716653   1.000000
  808       -1.716640   1.000000
  809       -1.716612   1.000000
  810       -1.716609   1.000000
  811       -1.716599   1.000000
  812       -1.716588   1.000000
  813       -1.716583   1.000000
  814       -1.716577   1.000000
  815       -1.716573   1.000000
  816       -1.716569   1.000000
  817       -1.677580   1.000000
  818       -1.677552   1.000000
  819       -1.677550   1.000000
  820       -1.677538   1.000000
  821       -1.677513   1.000000
  822       -1.677513   1.000000
  823       -1.677493   1.000000
  824       -1.677490   1.000000
  825       -1.677451   1.000000
  826       -1.677447   1.000000
  827       -1.677440   1.000000
  828       -1.677430   1.000000
  829       -1.643742   1.000000
  830       -1.643735   1.000000
  831       -1.643596   1.000000
  832       -1.643587   1.000000
  833       -1.643577   1.000000
  834       -1.643567   1.000000
  835       -1.642589   1.000000
  836       -1.642531   1.000000
  837       -1.642528   1.000000
  838       -1.638374   1.000000
  839       -1.638368   1.000000
  840       -1.638366   1.000000
  841       -1.638358   1.000000
  842       -1.638356   1.000000
  843       -1.638352   1.000000
  844       -1.627094   1.000000
  845       -1.627090   1.000000
  846       -1.627007   1.000000
  847       -1.627006   1.000000
  848       -1.626991   1.000000
  849       -1.626988   1.000000
  850       -1.618912   1.000000
  851       -1.618700   1.000000
  852       -1.618654   1.000000
  853       -1.618609   1.000000
  854       -1.618514   1.000000
  855       -1.618512   1.000000
  856       -1.614337   1.000000
  857       -1.614321   1.000000
  858       -1.614312   1.000000
  859       -1.614283   1.000000
  860       -1.614271   1.000000
  861       -1.614267   1.000000
  862       -1.594010   1.000000
  863       -1.593970   1.000000
  864       -1.593966   1.000000
  865       -1.559543   1.000000
  866       -1.559543   1.000000
  867       -1.559514   1.000000
  868       -1.559505   1.000000
  869       -1.559487   1.000000
  870       -1.559482   1.000000
  871       -1.528455   1.000000
  872       -1.528448   1.000000
  873       -1.528444   1.000000
  874       -1.528438   1.000000
  875       -1.528410   1.000000
  876       -1.528403   1.000000
  877       -1.528401   1.000000
  878       -1.528398   1.000000
  879       -1.528397   1.000000
  880       -1.528392   1.000000
  881       -1.528390   1.000000
  882       -1.528385   1.000000
  883       -1.522547   1.000000
  884       -1.509362   1.000000
  885       -1.508972   1.000000
  886       -1.508857   1.000000
  887       -1.508763   1.000000
  888       -1.508683   1.000000
  889       -1.508674   1.000000
  890       -1.456113   1.000000
  891       -1.456109   1.000000
  892       -1.455987   1.000000
  893       -1.455986   1.000000
  894       -1.455975   1.000000
  895       -1.455974   1.000000
  896       -1.401738   1.000000
  897       -1.401720   1.000000
  898       -1.401710   1.000000
  899       -1.401698   1.000000
  900       -1.401686   1.000000
  901       -1.401686   1.000000