       N       E                     dE             d eps       ncg     rms          rms(c)
DAV:   1     0.238596744659E+04    0.23860E+04   -0.20434E+05  3072   0.854E+02
DAV:   2    -0.705633820048E+03   -0.30916E+04   -0.29209E+04  4192   0.202E+02
DAV:   3    -0.945982013455E+03   -0.24035E+03   -0.23120E+03  4536   0.441E+01
DAV:   4    -0.955687243347E+03   -0.97052E+01   -0.94737E+01  4424   0.870E+00
DAV:   5    -0.956155538456E+03   -0.46830E+00   -0.46305E+00  5136   0.214E+00    0.424E+01
DAV:   6    -0.990484120813E+03   -0.34329E+02   -0.29781E+02  4920   0.185E+01    0.359E+01
DAV:   7    -0.943047553729E+03    0.47437E+02   -0.30267E+02  4224   0.215E+01    0.283E+01
DAV:   8    -0.956095604559E+03   -0.13048E+02   -0.11952E+02  4448   0.161E+01    0.229E+01
DAV:   9    -0.980163239325E+03   -0.24068E+02   -0.35993E+01  4392   0.217E+01    0.232E+01
DAV:  10    -0.927917252615E+03    0.52246E+02   -0.10371E+02  4984   0.149E+01    0.796E+00
DAV:  11    -0.930323689463E+03   -0.24064E+01   -0.38281E+01  4032   0.454E+00    0.980E+00
DAV:  12    -0.929030254000E+03    0.12934E+01   -0.21515E+00  4016   0.177E+00    0.844E+00
DAV:  13    -0.929568944779E+03   -0.53869E+00   -0.12741E+00  4272   0.836E-01    0.131E+01
DAV:  14    -0.929426837451E+03    0.14211E+00   -0.61759E-01  3936   0.922E-01    0.957E+00
DAV:  15    -0.929092202099E+03    0.33464E+00   -0.25523E-01  4096   0.515E-01    0.934E+00
DAV:  16    -0.928668715600E+03    0.42349E+00   -0.24625E-01  4008   0.495E-01    0.119E+01
DAV:  17    -0.928367989253E+03    0.30073E+00   -0.82281E-02  3584   0.281E-01    0.102E+00
DAV:  18    -0.928523389157E+03   -0.15540E+00   -0.28164E-02  3568   0.129E-01    0.642E+00
DAV:  19    -0.928446032410E+03    0.77357E-01   -0.49779E-01  3800   0.123E-01    0.518E+00
DAV:  20    -0.928585179264E+03   -0.13915E+00   -0.10763E-01  3608   0.132E-01    0.832E+00
DAV:  21    -0.928386422492E+03    0.19876E+00   -0.28533E-02  3640   0.132E-01    0.115E+00
DAV:  22    -0.928483695320E+03   -0.97273E-01   -0.67787E-03  3384   0.877E-02    0.213E+00
DAV:  23    -0.928481744377E+03    0.19509E-02   -0.12308E-02  3776   0.450E-02    0.219E+00
DAV:  24    -0.928511196830E+03   -0.29452E-01   -0.29606E-03  3352   0.530E-02    0.344E+00
DAV:  25    -0.928477038322E+03    0.34159E-01   -0.17400E-02  3944   0.376E-02    0.131E+00
DAV:  26    -0.928515344759E+03   -0.38306E-01   -0.14767E-03  3264   0.400E-02    0.152E+00
DAV:  27    -0.928506061224E+03    0.92835E-02   -0.23206E-03  3400   0.215E-02    0.112E+00
DAV:  28    -0.928511471717E+03   -0.54105E-02   -0.12087E-03  3152   0.254E-02    0.150E-01
DAV:  29    -0.928516814951E+03   -0.53432E-02   -0.12562E-04  2920   0.117E-02    0.756E-02
DAV:  30    -0.928517766666E+03   -0.95172E-03   -0.96409E-05  2848   0.531E-03    0.296E-01
DAV:  31    -0.928517758992E+03    0.76738E-05   -0.96602E-05  2648   0.591E-03    0.119E-01
DAV:  32    -0.928518533305E+03   -0.77431E-03   -0.23260E-05  2488   0.485E-03    0.929E-02
DAV:  33    -0.928518734163E+03   -0.20086E-03   -0.17524E-05  2360   0.259E-03    0.234E-02
DAV:  34    -0.928518943172E+03   -0.20901E-03   -0.89392E-06  2448   0.244E-03    0.280E-02
DAV:  35    -0.928518984885E+03   -0.41713E-04   -0.18504E-06  2112   0.127E-03    0.261E-02
DAV:  36    -0.928518998126E+03   -0.13241E-04   -0.36573E-07  1848   0.690E-04    0.275E-02
DAV:  37    -0.928519002928E+03   -0.48023E-05   -0.68585E-07  1856   0.591E-04
   1 F= -.10011680E+04 E0= -.10011168E+04  d E =-.102524E+00
