 270 270   0   0
  0.8742004E+01  0.1441508E-08  0.1441508E-08  0.1311625E-08  0.2000000E-15
   1.0000000000000000E-004
  CAR 
 NiAl                                    
     18.26131514    -14.91608805  301      6.10317926      1.00000000
    -14.916  0.0000E+00  0.0000E+00
    -14.805  0.0000E+00  0.0000E+00
    -14.695  0.0000E+00  0.0000E+00
    -14.584  0.0000E+00  0.0000E+00
    -14.474  0.0000E+00  0.0000E+00
    -14.363  0.0000E+00  0.0000E+00
    -14.253  0.0000E+00  0.0000E+00
    -14.142  0.0000E+00  0.0000E+00
    -14.031  0.0000E+00  0.0000E+00
    -13.921  0.0000E+00  0.0000E+00
    -13.810  0.0000E+00  0.0000E+00
    -13.700  0.8366E-18  0.9252E-19
    -13.589  0.2320E-08  0.2566E-09
    -13.478  0.3506E-03  0.3878E-04
    -13.368  0.1427E-01  0.1617E-02
    -13.257  0.9907E-01  0.1257E-01
    -13.147  0.1625E+00  0.3055E-01
    -13.036  0.9707E-01  0.4128E-01
    -12.925  0.2356E+00  0.6733E-01
    -12.815  0.3727E+00  0.1086E+00
    -12.704  0.9494E-01  0.1191E+00
    -12.594  0.3026E+00  0.1525E+00
    -12.483  0.5422E+00  0.2125E+00
    -12.372  0.2969E+00  0.2453E+00
    -12.262  0.5209E+00  0.3029E+00
    -12.151  0.4533E+00  0.3530E+00
    -12.041  0.7179E+00  0.4324E+00
    -11.930  0.3700E+00  0.4734E+00
    -11.820  0.3788E+00  0.5153E+00
    -11.709  0.5873E+00  0.5802E+00
    -11.598  0.4860E+00  0.6340E+00
    -11.488  0.6646E+00  0.7075E+00
    -11.377  0.6993E+00  0.7848E+00
    -11.267  0.1235E+01  0.9214E+00
    -11.156  0.1360E+01  0.1072E+01
    -11.045  0.1454E+01  0.1232E+01
    -10.935  0.1655E+01  0.1415E+01
    -10.824  0.1783E+01  0.1613E+01
    -10.714  0.1840E+01  0.1816E+01
    -10.603  0.2122E+01  0.2051E+01
    -10.492  0.9829E+00  0.2159E+01
    -10.382  0.4987E-02  0.2160E+01
    -10.271  0.8965E-08  0.2160E+01
    -10.161  0.0000E+00  0.2160E+01
    -10.050  0.0000E+00  0.2160E+01
     -9.939  0.0000E+00  0.2160E+01
     -9.829  0.0000E+00  0.2160E+01
     -9.718  0.0000E+00  0.2160E+01
     -9.608  0.0000E+00  0.2160E+01
     -9.497  0.0000E+00  0.2160E+01
     -9.387  0.0000E+00  0.2160E+01
     -9.276  0.0000E+00  0.2160E+01
     -9.165  0.0000E+00  0.2160E+01
     -9.055  0.0000E+00  0.2160E+01
     -8.944  0.0000E+00  0.2160E+01
     -8.834  0.0000E+00  0.2160E+01
     -8.723  0.0000E+00  0.2160E+01
     -8.612  0.0000E+00  0.2160E+01
     -8.502  0.0000E+00  0.2160E+01
     -8.391  0.0000E+00  0.2160E+01
     -8.281  0.0000E+00  0.2160E+01
     -8.170  0.0000E+00  0.2160E+01
     -8.059  0.0000E+00  0.2160E+01
     -7.949  0.0000E+00  0.2160E+01
     -7.838  0.0000E+00  0.2160E+01
     -7.728  0.0000E+00  0.2160E+01
     -7.617  0.0000E+00  0.2160E+01
     -7.506  0.0000E+00  0.2160E+01
     -7.396  0.0000E+00  0.2160E+01
     -7.285  0.0000E+00  0.2160E+01
     -7.175  0.0000E+00  0.2160E+01
     -7.064  0.0000E+00  0.2160E+01
     -6.954  0.0000E+00  0.2160E+01
     -6.843  0.0000E+00  0.2160E+01
     -6.732  0.0000E+00  0.2160E+01
     -6.622  0.0000E+00  0.2160E+01
     -6.511  0.0000E+00  0.2160E+01
     -6.401  0.0000E+00  0.2160E+01
     -6.290  0.0000E+00  0.2160E+01
     -6.179  0.0000E+00  0.2160E+01
     -6.069  0.0000E+00  0.2160E+01
     -5.958  0.0000E+00  0.2160E+01
     -5.848  0.0000E+00  0.2160E+01
     -5.737  0.0000E+00  0.2160E+01
     -5.626  0.0000E+00  0.2160E+01
     -5.516  0.0000E+00  0.2160E+01
     -5.405  0.0000E+00  0.2160E+01
     -5.295  0.0000E+00  0.2160E+01
     -5.184  0.0000E+00  0.2160E+01
     -5.073  0.0000E+00  0.2160E+01
     -4.963  0.0000E+00  0.2160E+01
     -4.852  0.0000E+00  0.2160E+01
     -4.742  0.0000E+00  0.2160E+01
     -4.631  0.0000E+00  0.2160E+01
     -4.521  0.0000E+00  0.2160E+01
     -4.410  0.0000E+00  0.2160E+01
     -4.299  0.0000E+00  0.2160E+01
     -4.189  0.0000E+00  0.2160E+01
     -4.078  0.0000E+00  0.2160E+01
     -3.968  0.0000E+00  0.2160E+01
     -3.857  0.0000E+00  0.2160E+01
     -3.746  0.0000E+00  0.2160E+01
     -3.636  0.0000E+00  0.2160E+01
     -3.525  0.0000E+00  0.2160E+01
     -3.415  0.0000E+00  0.2160E+01
     -3.304  0.0000E+00  0.2160E+01
     -3.193  0.0000E+00  0.2160E+01
     -3.083  0.0000E+00  0.2160E+01
     -2.972  0.0000E+00  0.2160E+01
     -2.862  0.0000E+00  0.2160E+01
     -2.751  0.0000E+00  0.2160E+01
     -2.640  0.0000E+00  0.2160E+01
     -2.530  0.0000E+00  0.2160E+01
     -2.419  0.0000E+00  0.2160E+01
     -2.309  0.0000E+00  0.2160E+01
     -2.198  0.0000E+00  0.2160E+01
     -2.087  0.0000E+00  0.2160E+01
     -1.977  0.0000E+00  0.2160E+01
     -1.866  0.0000E+00  0.2160E+01
     -1.756  0.0000E+00  0.2160E+01
     -1.645  0.0000E+00  0.2160E+01
     -1.535  0.0000E+00  0.2160E+01
     -1.424  0.0000E+00  0.2160E+01
     -1.313  0.9964E-11  0.2160E+01
     -1.203  0.2500E-04  0.2160E+01
     -1.092  0.8762E-02  0.2161E+01
     -0.982  0.5484E-01  0.2167E+01
     -0.871  0.4348E-01  0.2172E+01
     -0.760  0.1391E+00  0.2187E+01
     -0.650  0.3653E+00  0.2228E+01
     -0.539  0.4797E+00  0.2281E+01
     -0.429  0.6545E+00  0.2353E+01
     -0.318  0.9435E+00  0.2457E+01
     -0.207  0.7833E+00  0.2544E+01
     -0.097  0.9697E+00  0.2651E+01
      0.014  0.1191E+01  0.2783E+01
      0.124  0.1093E+01  0.2904E+01
      0.235  0.6911E+00  0.2980E+01
      0.346  0.6037E+00  0.3047E+01
      0.456  0.4111E+00  0.3093E+01
      0.567  0.6497E+00  0.3164E+01
      0.677  0.7509E+00  0.3247E+01
      0.788  0.7422E+00  0.3330E+01
      0.898  0.1312E+01  0.3475E+01
      1.009  0.4637E+00  0.3526E+01
      1.120  0.3601E+00  0.3566E+01
      1.230  0.5488E+00  0.3626E+01
      1.341  0.8098E+00  0.3716E+01
      1.451  0.6735E+00  0.3790E+01
      1.562  0.7407E+00  0.3872E+01
      1.673  0.8170E+00  0.3963E+01
      1.783  0.1292E+01  0.4106E+01
      1.894  0.1094E+01  0.4227E+01
      2.004  0.6002E+00  0.4293E+01
      2.115  0.6554E+00  0.4365E+01
      2.226  0.7783E+00  0.4451E+01
      2.336  0.8116E+00  0.4541E+01
      2.447  0.7469E+00  0.4624E+01
      2.557  0.4857E+00  0.4678E+01
      2.668  0.3812E+00  0.4720E+01
      2.779  0.9696E+00  0.4827E+01
      2.889  0.4827E+00  0.4880E+01
      3.000  0.4884E+00  0.4934E+01
      3.110  0.1332E+01  0.5082E+01
      3.221  0.9599E+00  0.5188E+01
      3.331  0.9836E+00  0.5297E+01
      3.442  0.1024E+01  0.5410E+01
      3.553  0.1530E+01  0.5579E+01
      3.663  0.1081E+01  0.5699E+01
      3.774  0.1203E+01  0.5832E+01
      3.884  0.1293E+01  0.5975E+01
      3.995  0.1256E+01  0.6113E+01
      4.106  0.1487E+01  0.6278E+01
      4.216  0.1223E+01  0.6413E+01
      4.327  0.1588E+01  0.6589E+01
      4.437  0.2332E+01  0.6847E+01
      4.548  0.1729E+01  0.7038E+01
      4.659  0.1149E+01  0.7165E+01
      4.769  0.1576E+01  0.7339E+01
      4.880  0.1213E+01  0.7473E+01
      4.990  0.1621E+01  0.7653E+01
      5.101  0.1875E+01  0.7860E+01
      5.212  0.1551E+01  0.8032E+01
      5.322  0.1385E+01  0.8185E+01
      5.433  0.1864E+01  0.8391E+01
      5.543  0.1336E+01  0.8539E+01
      5.654  0.6944E+00  0.8615E+01
      5.764  0.2096E+00  0.8639E+01
      5.875  0.1213E-01  0.8640E+01
      5.986  0.7693E-04  0.8640E+01
      6.096  0.9207E-10  0.8640E+01
      6.207  0.0000E+00  0.8640E+01
      6.317  0.0000E+00  0.8640E+01
      6.428  0.0000E+00  0.8640E+01
      6.539  0.0000E+00  0.8640E+01
      6.649  0.0000E+00  0.8640E+01
      6.760  0.0000E+00  0.8640E+01
      6.870  0.0000E+00  0.8640E+01
      6.981  0.0000E+00  0.8640E+01
      7.092  0.0000E+00  0.8640E+01
      7.202  0.0000E+00  0.8640E+01
      7.313  0.0000E+00  0.8640E+01
      7.423  0.0000E+00  0.8640E+01
      7.534  0.0000E+00  0.8640E+01
      7.645  0.0000E+00  0.8640E+01
      7.755  0.0000E+00  0.8640E+01
      7.866  0.0000E+00  0.8640E+01
      7.976  0.0000E+00  0.8640E+01
      8.087  0.0000E+00  0.8640E+01
      8.198  0.0000E+00  0.8640E+01
      8.308  0.0000E+00  0.8640E+01
      8.419  0.0000E+00  0.8640E+01
      8.529  0.0000E+00  0.8640E+01
      8.640  0.0000E+00  0.8640E+01
      8.750  0.0000E+00  0.8640E+01
      8.861  0.0000E+00  0.8640E+01
      8.972  0.0000E+00  0.8640E+01
      9.082  0.0000E+00  0.8640E+01
      9.193  0.0000E+00  0.8640E+01
      9.303  0.0000E+00  0.8640E+01
      9.414  0.0000E+00  0.8640E+01
      9.525  0.0000E+00  0.8640E+01
      9.635  0.0000E+00  0.8640E+01
      9.746  0.0000E+00  0.8640E+01
      9.856  0.0000E+00  0.8640E+01
      9.967  0.0000E+00  0.8640E+01
     10.078  0.0000E+00  0.8640E+01
     10.188  0.0000E+00  0.8640E+01
     10.299  0.0000E+00  0.8640E+01
     10.409  0.0000E+00  0.8640E+01
     10.520  0.0000E+00  0.8640E+01
     10.631  0.0000E+00  0.8640E+01
     10.741  0.0000E+00  0.8640E+01
     10.852  0.0000E+00  0.8640E+01
     10.962  0.0000E+00  0.8640E+01
     11.073  0.0000E+00  0.8640E+01
     11.183  0.0000E+00  0.8640E+01
     11.294  0.1074E-09  0.8640E+01
     11.405  0.8297E-04  0.8640E+01
     11.515  0.1078E-01  0.8641E+01
     11.626  0.4204E-02  0.8642E+01
     11.736  0.1540E-05  0.8642E+01
     11.847  0.9277E-07  0.8642E+01
     11.958  0.2475E-02  0.8642E+01
     12.068  0.5122E-01  0.8648E+01
     12.179  0.6635E-01  0.8655E+01
     12.289  0.5186E-03  0.8655E+01
     12.400  0.8943E-04  0.8655E+01
     12.511  0.7830E-01  0.8664E+01
     12.621  0.1022E+00  0.8675E+01
     12.732  0.2794E-03  0.8675E+01
     12.842  0.1054E-04  0.8675E+01
     12.953  0.2632E-01  0.8678E+01
     13.064  0.8232E-01  0.8687E+01
     13.174  0.1205E-01  0.8688E+01
     13.285  0.8993E-01  0.8698E+01
     13.395  0.1738E+00  0.8718E+01
     13.506  0.1678E+00  0.8736E+01
     13.616  0.9306E-01  0.8746E+01
     13.727  0.1078E+00  0.8758E+01
     13.838  0.4713E-03  0.8758E+01
     13.948  0.1303E-02  0.8758E+01
     14.059  0.9300E-01  0.8769E+01
     14.169  0.2458E+00  0.8796E+01
     14.280  0.2068E+00  0.8819E+01
     14.391  0.4225E+00  0.8866E+01
     14.501  0.1532E+00  0.8882E+01
     14.612  0.6152E-01  0.8889E+01
     14.722  0.2200E+00  0.8914E+01
     14.833  0.9130E+00  0.9015E+01
     14.944  0.4087E+00  0.9060E+01
     15.054  0.9480E+00  0.9165E+01
     15.165  0.7670E+00  0.9249E+01
     15.275  0.9837E+00  0.9358E+01
     15.386  0.7367E+00  0.9440E+01
     15.497  0.6485E+00  0.9511E+01
     15.607  0.8044E+00  0.9600E+01
     15.718  0.6608E+00  0.9673E+01
     15.828  0.1295E+01  0.9817E+01
     15.939  0.8299E+00  0.9908E+01
     16.049  0.8328E+00  0.1000E+02
     16.160  0.5835E+00  0.1007E+02
     16.271  0.7530E+00  0.1015E+02
     16.381  0.1040E+01  0.1026E+02
     16.492  0.6319E+00  0.1033E+02
     16.602  0.4419E+00  0.1038E+02
     16.713  0.4638E+00  0.1043E+02
     16.824  0.1778E+00  0.1045E+02
     16.934  0.1836E-02  0.1045E+02
     17.045  0.8445E-08  0.1045E+02
     17.155  0.0000E+00  0.1045E+02
     17.266  0.0000E+00  0.1045E+02
     17.377  0.0000E+00  0.1045E+02
     17.487  0.0000E+00  0.1045E+02
     17.598  0.0000E+00  0.1045E+02
     17.708  0.0000E+00  0.1045E+02
     17.819  0.0000E+00  0.1045E+02
     17.930  0.0000E+00  0.1045E+02
     18.040  0.0000E+00  0.1045E+02
     18.151  0.0000E+00  0.1045E+02
     18.261  0.0000E+00  0.1045E+02
