 vasp.6.2.1 16May21 (build May 12 2022 08:28:04) complex                         
 executed on             LinuxPGI date 2022.07.10  08:33:54
 running on    1 total cores
 distrk:  each k-point on    1 cores,    1 groups
 distr:  one band on NCORE=   1 cores,    1 groups


--------------------------------------------------------------------------------------------------------


 INCAR:
   SYSTEM = NiAl
   ISTART = 0
   EDIFF = 5E-6
   NELMIN = 6
   ISIF = 0
   NSW = 150
   IBRION = 2
   POTIM = 0.2
   IVDW = 12
   LWAVE = .FALSE.
   LCHARG = .FALSE.
   LREAL = Auto
   NCORE = 1
   LPLANE = .TRUE.
   ENCUT = 360.00 eV
   ISMEAR = 0
   SIGMA = 0.05

 POTCAR:    PAW Al_GW 19Mar2012                   
 POTCAR:    PAW O_GW 19Mar2012                    
 POTCAR:    PAW Al_GW 19Mar2012                   
   VRHFIN =Al: s2p1                                                                                 
   LEXCH  = PE                                                                                      
   EATOM  =    53.5387 eV,    3.9350 Ry                                                             
                                                                                                    
   TITEL  = PAW Al_GW 19Mar2012                                                                     
   LULTRA =        F    use ultrasoft PP ?                                                          
   IUNSCR =        1    unscreen: 0-lin 1-nonlin 2-no                                               
   RPACOR =    1.500    partial core radius                                                         
   POMASS =   26.982; ZVAL   =    3.000    mass and valenz                                          
   RCORE  =    2.000    outmost cutoff radius                                                       
   RWIGS  =    2.000; RWIGS  =    1.058    wigner-seitz radius (au A)                               
   ENMAX  =  240.300; ENMIN  =  180.225 eV                                                          
   ICORE  =        3    local potential                                                             
   LCOR   =        T    correct aug charges                                                         
   LPAW   =        T    paw PP                                                                      
   EAUG   =  482.059                                                                                
   DEXC   =    0.000                                                                                
   RMAX   =    2.051    core radius for proj-oper                                                   
   RAUG   =    1.300    factor for augmentation sphere                                              
   RDEP   =    2.096    radius for radial grids                                                     
   RDEPT  =    1.856    core radius for aug-charge                                                  
                                                                                                    
   Atomic configuration                                                                             
    7 entries                                                                                       
     n  l   j            E        occ.                                                              
     1  0  0.50     -1511.1048   2.0000                                                             
     2  0  0.50      -108.1629   2.0000                                                             
     2  1  1.50       -69.6402   6.0000                                                             
     3  0  0.50        -7.7528   2.0000                                                             
     3  1  1.50        -2.7121   1.0000                                                             
     3  2  2.50        -2.7212   0.0000                                                             
     4  3  2.50        -2.7212   0.0000                                                             
   Description                                                                                      
     l       E           TYP  RCUT    TYP  RCUT                                                     
     0     -7.7528455     23  1.900                                                                 
     0     68.0291300     23  1.900                                                                 
     1     -2.7120682     23  1.900                                                                 
     1     68.0291300     23  1.900                                                                 
     2     -1.3605826     23  1.900                                                                 
     2     81.6349560     23  1.900                                                                 
     3     74.8320430     23  2.000                                                                 
  local pseudopotential read in
  partial core-charges read in
  partial kinetic energy density read in
  kinetic energy density of atom read in
  atomic valenz-charges read in
  non local Contribution for L=            0  read in
    real space projection operators read in
  non local Contribution for L=            0  read in
    real space projection operators read in
  non local Contribution for L=            1  read in
    real space projection operators read in
  non local Contribution for L=            1  read in
    real space projection operators read in
  non local Contribution for L=            2  read in
    real space projection operators read in
  non local Contribution for L=            2  read in
    real space projection operators read in
    PAW grid and wavefunctions read in
 
   number of l-projection  operators is LMAX  =            6
   number of lm-projection operators is LMMAX =           18
 
 POTCAR:    PAW O_GW 19Mar2012                    
   VRHFIN =O: s2p4                                                                                  
   LEXCH  = PE                                                                                      
   EATOM  =   432.3788 eV,   31.7789 Ry                                                             
                                                                                                    
   TITEL  = PAW O_GW 19Mar2012                                                                      
   LULTRA =        F    use ultrasoft PP ?                                                          
   IUNSCR =        1    unscreen: 0-lin 1-nonlin 2-no                                               
   RPACOR =    0.800    partial core radius                                                         
   POMASS =   16.000; ZVAL   =    6.000    mass and valenz                                          
   RCORE  =    1.600    outmost cutoff radius                                                       
   RWIGS  =    1.600; RWIGS  =    0.847    wigner-seitz radius (au A)                               
   ENMAX  =  434.431; ENMIN  =  325.824 eV                                                          
   ICORE  =        3    local potential                                                             
   LCOR   =        T    correct aug charges                                                         
   LPAW   =        T    paw PP                                                                      
   EAUG   = 1139.609                                                                                
   DEXC   =    0.000                                                                                
   RMAX   =    1.629    core radius for proj-oper                                                   
   RAUG   =    1.300    factor for augmentation sphere                                              
   RDEP   =    1.652    radius for radial grids                                                     
   RDEPT  =    1.200    core radius for aug-charge                                                  
                                                                                                    
   Atomic configuration                                                                             
    5 entries                                                                                       
     n  l   j            E        occ.                                                              
     1  0  0.50      -514.6923   2.0000                                                             
     2  0  0.50       -23.9615   2.0000                                                             
     2  1  0.50        -9.0305   4.0000                                                             
     3  2  1.50        -9.5241   0.0000                                                             
     4  3  2.50        -9.5241   0.0000                                                             
   Description                                                                                      
     l       E           TYP  RCUT    TYP  RCUT                                                     
     0    -23.9615316     23  1.150                                                                 
     0    -25.3221142     23  1.150                                                                 
     0    244.9048680     23  1.300                                                                 
     1     -9.0304908     23  1.500                                                                 
     1     -6.9258396     23  1.500                                                                 
     1    122.4524340     23  1.500                                                                 
     2     13.6058260     23  1.500                                                                 
     2    190.4815640     23  1.600                                                                 
     3     54.4233040     23  1.400                                                                 
  local pseudopotential read in
  partial core-charges read in
  partial kinetic energy density read in
  kinetic energy density of atom read in
  atomic valenz-charges read in
  non local Contribution for L=            0  read in
    real space projection operators read in
  non local Contribution for L=            0  read in
    real space projection operators read in
  non local Contribution for L=            0  read in
    real space projection operators read in
  non local Contribution for L=            1  read in
    real space projection operators read in
  non local Contribution for L=            1  read in
    real space projection operators read in
  non local Contribution for L=            1  read in
    real space projection operators read in
  non local Contribution for L=            2  read in
    real space projection operators read in
  non local Contribution for L=            2  read in
    real space projection operators read in
    PAW grid and wavefunctions read in
 
   number of l-projection  operators is LMAX  =            8
   number of lm-projection operators is LMMAX =           22
 
 Optimization of the real space projectors (new method)

 maximal supplied QI-value         = 18.90
 optimisation between [QCUT,QGAM] = [  9.64, 19.28] = [ 26.01,104.04] Ry 
 Optimized for a Real-space Cutoff    1.46 Angstroem

   l    n(q)    QCUT    max X(q) W(low)/X(q) W(high)/X(q)  e(spline) 
   0      8     9.638    11.519    0.10E-03    0.23E-03    0.86E-07
   0      8     9.638     5.834    0.72E-04    0.17E-03    0.68E-07
   1      8     9.638    10.132    0.33E-03    0.11E-03    0.32E-06
   1      8     9.638     3.004    0.25E-03    0.10E-03    0.24E-06
   2      7     9.638     3.169    0.30E-03    0.50E-03    0.35E-06
   2      7     9.638     1.607    0.15E-03    0.13E-03    0.12E-06
 Optimization of the real space projectors (new method)

 maximal supplied QI-value         = 23.62
 optimisation between [QCUT,QGAM] = [  9.68, 19.37] = [ 26.27,105.06] Ry 
 Optimized for a Real-space Cutoff    2.14 Angstroem

   l    n(q)    QCUT    max X(q) W(low)/X(q) W(high)/X(q)  e(spline) 
   0     13     9.685   116.464    0.15E-03    0.15E-03    0.47E-05
   0     13     9.685   116.329    0.15E-03    0.15E-03    0.46E-05
   0     13     9.685     0.942    0.20E-04    0.50E-04    0.17E-05
   1     12     9.685    29.046    0.36E-03    0.11E-02    0.25E-04
   1     12     9.685    24.247    0.38E-03    0.11E-02    0.26E-04
   1     12     9.685     2.381    0.13E-03    0.38E-03    0.78E-05
   2     12     9.685     2.237    0.60E-05    0.28E-04    0.14E-05
   2     12     9.685     1.850    0.17E-04    0.70E-04    0.25E-05
  PAW Al_GW 19Mar2012                   :
 energy of atom  1       EATOM=  -53.5387
 kinetic energy error for atom=    0.0006 (will be added to EATOM!!)
  PAW O_GW 19Mar2012                    :
 energy of atom  2       EATOM= -432.3788
 kinetic energy error for atom=    0.3913 (will be added to EATOM!!)
 
 
 POSCAR: Al  O
  positions in cartesian coordinates
  No initial velocities read in
 exchange correlation table for  LEXCH =        8
   RHO(1)=    0.500       N(1)  =     2000
   RHO(2)=  100.500       N(2)  =     4000

 VTST: version 4.1, (05/19/21)

 CHAIN: initializing optimizer
 
 OPT: Using VASP Conjugate-Gradient optimizer
 CHAIN: Read ICHAIN             0
 
 POSCAR: Al  O
  positions in cartesian coordinates
  No initial velocities read in
 


--------------------------------------------------------------------------------------------------------


 ion  position               nearest neighbor table
   1  0.000  0.000  0.148- 218 1.87 114 1.87 257 1.87 256 1.99 111 1.99 109 1.99
   2  0.111  0.222  0.019- 221 1.87 128 1.87 114 1.87 123 1.99 124 1.99 121 1.99
   3  0.111  0.222  0.315- 127 1.87 111 1.87 112 1.87 119 1.99 116 1.99 120 1.99
   4  0.222  0.111  0.185- 165 1.87 109 1.87 112 1.87 113 1.99 110 1.99 114 1.99
   5  0.222  0.111  0.481- 155 1.87 174 1.87 116 1.87 117 1.99 118 1.99 115 1.99
   6  0.000  0.000  0.352- 156 1.87 116 1.87 263 1.87 256 1.99 111 1.99 109 1.99
   7  0.000  0.000  0.648- 223 1.87 261 1.87 118 1.87 125 1.99 158 1.99 234 1.99
   8  0.111  0.222  0.519- 136 1.87 223 1.87 117 1.87 116 1.99 119 1.99 120 1.99
   9  0.111  0.222  0.815- 122 1.87 144 1.87 125 1.87 123 1.99 124 1.99 121 1.99
  10  0.222  0.111  0.685- 126 1.87 176 1.87 125 1.87 118 1.99 117 1.99 115 1.99
  11  0.222  0.111  0.981- 178 1.87 159 1.87 121 1.87 113 1.99 110 1.99 114 1.99
  12  0.000  0.000  0.852- 159 1.87 265 1.87 124 1.87 125 1.99 158 1.99 234 1.99
  13  0.000  0.333  0.148- 236 1.87 132 1.87 221 1.87 129 1.99 220 1.99 127 1.99
  14  0.111  0.556  0.019- 239 1.87 146 1.87 132 1.87 142 1.99 141 1.99 139 1.99
  15  0.111  0.556  0.315- 145 1.87 129 1.87 130 1.87 134 1.99 137 1.99 138 1.99
  16  0.222  0.444  0.185- 183 1.87 127 1.87 130 1.87 131 1.99 128 1.99 132 1.99
  17  0.222  0.444  0.481- 119 1.87 192 1.87 134 1.87 135 1.99 136 1.99 133 1.99
  18  0.000  0.333  0.352- 120 1.87 134 1.87 227 1.87 129 1.99 220 1.99 127 1.99
  19  0.000  0.333  0.648- 241 1.87 225 1.87 136 1.87 143 1.99 122 1.99 252 1.99
  20  0.111  0.556  0.519- 154 1.87 241 1.87 135 1.87 134 1.99 137 1.99 138 1.99
  21  0.111  0.556  0.815- 140 1.87 162 1.87 143 1.87 142 1.99 141 1.99 139 1.99
  22  0.222  0.444  0.685- 144 1.87 194 1.87 143 1.87 135 1.99 136 1.99 133 1.99
  23  0.222  0.444  0.981- 196 1.87 123 1.87 139 1.87 131 1.99 128 1.99 132 1.99
  24  0.000  0.333  0.852- 123 1.87 229 1.87 142 1.87 143 1.99 122 1.99 252 1.99
  25  0.000  0.667  0.148- 254 1.87 150 1.87 239 1.87 238 1.99 147 1.99 145 1.99
  26  0.111  0.889  0.019- 257 1.87 110 1.87 150 1.87 160 1.99 159 1.99 157 1.99
  27  0.111  0.889  0.315- 109 1.87 147 1.87 148 1.87 152 1.99 155 1.99 156 1.99
  28  0.222  0.778  0.185- 201 1.87 145 1.87 148 1.87 149 1.99 146 1.99 150 1.99
  29  0.222  0.778  0.481- 137 1.87 210 1.87 152 1.87 154 1.99 153 1.99 151 1.99
  30  0.000  0.667  0.352- 138 1.87 152 1.87 245 1.87 238 1.99 147 1.99 145 1.99
  31  0.000  0.667  0.648- 259 1.87 243 1.87 154 1.87 140 1.99 161 1.99 270 1.99
  32  0.111  0.889  0.519- 118 1.87 259 1.87 153 1.87 155 1.99 152 1.99 156 1.99
  33  0.111  0.889  0.815- 158 1.87 126 1.87 161 1.87 160 1.99 159 1.99 157 1.99
  34  0.222  0.778  0.685- 162 1.87 212 1.87 161 1.87 154 1.99 153 1.99 151 1.99
  35  0.222  0.778  0.981- 214 1.87 141 1.87 157 1.87 146 1.99 149 1.99 150 1.99
  36  0.000  0.667  0.852- 141 1.87 247 1.87 160 1.87 140 1.99 161 1.99 270 1.99
  37  0.333  0.000  0.148- 110 1.87 168 1.87 149 1.87 165 1.99 148 1.99 163 1.99
  38  0.444  0.222  0.019- 113 1.87 182 1.87 168 1.87 178 1.99 177 1.99 175 1.99
  39  0.444  0.222  0.315- 181 1.87 165 1.87 166 1.87 173 1.99 170 1.99 174 1.99
  40  0.556  0.111  0.185- 219 1.87 163 1.87 166 1.87 167 1.99 164 1.99 168 1.99
  41  0.556  0.111  0.481- 209 1.87 228 1.87 170 1.87 172 1.99 171 1.99 169 1.99
  42  0.333  0.000  0.352- 210 1.87 170 1.87 155 1.87 148 1.99 165 1.99 163 1.99
  43  0.333  0.000  0.648- 115 1.87 153 1.87 172 1.87 179 1.99 212 1.99 126 1.99
  44  0.444  0.222  0.519- 190 1.87 115 1.87 171 1.87 173 1.99 170 1.99 174 1.99
  45  0.444  0.222  0.815- 176 1.87 198 1.87 179 1.87 177 1.99 178 1.99 175 1.99
  46  0.556  0.111  0.685- 180 1.87 230 1.87 179 1.87 172 1.99 171 1.99 169 1.99
  47  0.556  0.111  0.981- 232 1.87 213 1.87 175 1.87 167 1.99 164 1.99 168 1.99
  48  0.333  0.000  0.852- 213 1.87 157 1.87 178 1.87 179 1.99 212 1.99 126 1.99
  49  0.333  0.333  0.148- 128 1.87 186 1.87 113 1.87 183 1.99 112 1.99 181 1.99
  50  0.444  0.556  0.019- 131 1.87 200 1.87 186 1.87 196 1.99 195 1.99 193 1.99
  51  0.444  0.556  0.315- 199 1.87 183 1.87 184 1.87 188 1.99 191 1.99 192 1.99
  52  0.556  0.444  0.185- 237 1.87 181 1.87 184 1.87 185 1.99 182 1.99 186 1.99
  53  0.556  0.444  0.481- 173 1.87 246 1.87 188 1.87 189 1.99 190 1.99 187 1.99
  54  0.333  0.333  0.352- 174 1.87 188 1.87 119 1.87 183 1.99 112 1.99 181 1.99
  55  0.333  0.333  0.648- 133 1.87 117 1.87 190 1.87 197 1.99 176 1.99 144 1.99
  56  0.444  0.556  0.519- 208 1.87 133 1.87 189 1.87 188 1.99 191 1.99 192 1.99
  57  0.444  0.556  0.815- 194 1.87 216 1.87 197 1.87 196 1.99 195 1.99 193 1.99
  58  0.556  0.444  0.685- 198 1.87 248 1.87 197 1.87 189 1.99 190 1.99 187 1.99
  59  0.556  0.444  0.981- 250 1.87 177 1.87 193 1.87 185 1.99 182 1.99 186 1.99
  60  0.333  0.333  0.852- 177 1.87 121 1.87 196 1.87 197 1.99 176 1.99 144 1.99
  61  0.333  0.667  0.148- 146 1.87 204 1.87 131 1.87 130 1.99 201 1.99 199 1.99
  62  0.444  0.889  0.019- 149 1.87 164 1.87 204 1.87 213 1.99 214 1.99 211 1.99
  63  0.444  0.889  0.315- 163 1.87 201 1.87 202 1.87 209 1.99 206 1.99 210 1.99
  64  0.556  0.778  0.185- 255 1.87 199 1.87 202 1.87 203 1.99 200 1.99 204 1.99
  65  0.556  0.778  0.481- 191 1.87 264 1.87 206 1.87 208 1.99 207 1.99 205 1.99
  66  0.333  0.667  0.352- 192 1.87 206 1.87 137 1.87 130 1.99 201 1.99 199 1.99
  67  0.333  0.667  0.648- 151 1.87 135 1.87 208 1.87 194 1.99 215 1.99 162 1.99
  68  0.444  0.889  0.519- 172 1.87 151 1.87 207 1.87 209 1.99 206 1.99 210 1.99
  69  0.444  0.889  0.815- 212 1.87 180 1.87 215 1.87 214 1.99 213 1.99 211 1.99
  70  0.556  0.778  0.685- 216 1.87 266 1.87 215 1.87 208 1.99 207 1.99 205 1.99
  71  0.556  0.778  0.981- 268 1.87 195 1.87 211 1.87 200 1.99 203 1.99 204 1.99
  72  0.333  0.667  0.852- 195 1.87 139 1.87 214 1.87 194 1.99 215 1.99 162 1.99
  73  0.667  0.000  0.148- 164 1.87 222 1.87 203 1.87 202 1.99 219 1.99 217 1.99
  74  0.778  0.222  0.019- 167 1.87 236 1.87 222 1.87 232 1.99 231 1.99 229 1.99
  75  0.778  0.222  0.315- 235 1.87 219 1.87 220 1.87 227 1.99 224 1.99 228 1.99
  76  0.889  0.111  0.185- 111 1.87 217 1.87 220 1.87 218 1.99 221 1.99 222 1.99
  77  0.889  0.111  0.481- 263 1.87 120 1.87 224 1.87 226 1.99 225 1.99 223 1.99
  78  0.667  0.000  0.352- 264 1.87 224 1.87 209 1.87 202 1.99 219 1.99 217 1.99
  79  0.667  0.000  0.648- 169 1.87 207 1.87 226 1.87 233 1.99 266 1.99 180 1.99
  80  0.778  0.222  0.519- 244 1.87 169 1.87 225 1.87 227 1.99 224 1.99 228 1.99
  81  0.778  0.222  0.815- 230 1.87 252 1.87 233 1.87 231 1.99 232 1.99 229 1.99
  82  0.889  0.111  0.685- 234 1.87 122 1.87 233 1.87 225 1.99 226 1.99 223 1.99
  83  0.889  0.111  0.981- 124 1.87 267 1.87 229 1.87 218 1.99 221 1.99 222 1.99
  84  0.667  0.000  0.852- 267 1.87 211 1.87 232 1.87 266 1.99 233 1.99 180 1.99
  85  0.667  0.333  0.148- 182 1.87 240 1.87 167 1.87 237 1.99 166 1.99 235 1.99
  86  0.778  0.556  0.019- 185 1.87 254 1.87 240 1.87 250 1.99 249 1.99 247 1.99
  87  0.778  0.556  0.315- 253 1.87 237 1.87 238 1.87 242 1.99 245 1.99 246 1.99
  88  0.889  0.444  0.185- 129 1.87 235 1.87 238 1.87 239 1.99 236 1.99 240 1.99
  89  0.889  0.444  0.481- 227 1.87 138 1.87 242 1.87 243 1.99 244 1.99 241 1.99
  90  0.667  0.333  0.352- 228 1.87 242 1.87 173 1.87 237 1.99 166 1.99 235 1.99
  91  0.667  0.333  0.648- 187 1.87 171 1.87 244 1.87 251 1.99 230 1.99 198 1.99
  92  0.778  0.556  0.519- 262 1.87 187 1.87 243 1.87 242 1.99 245 1.99 246 1.99
  93  0.778  0.556  0.815- 248 1.87 270 1.87 251 1.87 250 1.99 249 1.99 247 1.99
  94  0.889  0.444  0.685- 252 1.87 140 1.87 251 1.87 243 1.99 244 1.99 241 1.99
  95  0.889  0.444  0.981- 142 1.87 231 1.87 247 1.87 239 1.99 236 1.99 240 1.99
  96  0.667  0.333  0.852- 231 1.87 175 1.87 250 1.87 251 1.99 230 1.99 198 1.99
  97  0.667  0.667  0.148- 200 1.87 258 1.87 185 1.87 184 1.99 255 1.99 253 1.99
  98  0.778  0.889  0.019- 203 1.87 218 1.87 258 1.87 267 1.99 268 1.99 265 1.99
  99  0.778  0.889  0.315- 217 1.87 255 1.87 256 1.87 260 1.99 263 1.99 264 1.99
 100  0.889  0.778  0.185- 147 1.87 253 1.87 256 1.87 254 1.99 257 1.99 258 1.99
 101  0.889  0.778  0.481- 245 1.87 156 1.87 260 1.87 261 1.99 262 1.99 259 1.99
 102  0.667  0.667  0.352- 246 1.87 260 1.87 191 1.87 184 1.99 255 1.99 253 1.99
 103  0.667  0.667  0.648- 205 1.87 189 1.87 262 1.87 248 1.99 269 1.99 216 1.99
 104  0.778  0.889  0.519- 226 1.87 205 1.87 261 1.87 260 1.99 263 1.99 264 1.99
 105  0.778  0.889  0.815- 266 1.87 234 1.87 269 1.87 268 1.99 267 1.99 265 1.99
 106  0.889  0.778  0.685- 270 1.87 158 1.87 269 1.87 261 1.99 262 1.99 259 1.99
 107  0.889  0.778  0.981- 160 1.87 249 1.87 265 1.87 257 1.99 254 1.99 258 1.99
 108  0.667  0.667  0.852- 249 1.87 193 1.87 268 1.87 248 1.99 269 1.99 216 1.99
 109  0.102  0.000  0.250-  27 1.87   4 1.87   6 1.99   1 1.99
 110  0.222  0.009  0.083-  26 1.87  37 1.87   4 1.99  11 1.99
 111  0.000  0.102  0.250-  76 1.87   3 1.87   6 1.99   1 1.99
 112  0.231  0.231  0.250-   4 1.87   3 1.87  49 1.99  54 1.99
 113  0.324  0.213  0.083-  38 1.87  49 1.87   4 1.99  11 1.99
 114  0.120  0.111  0.083-   2 1.87   1 1.87   4 1.99  11 1.99
 115  0.324  0.111  0.583-  44 1.87  43 1.87  10 1.99   5 1.99
 116  0.111  0.120  0.417-   5 1.87   6 1.87   3 1.99   8 1.99
 117  0.222  0.213  0.583-   8 1.87  55 1.87  10 1.99   5 1.99
 118  0.120  0.009  0.583-  32 1.87   7 1.87  10 1.99   5 1.99
 119  0.213  0.324  0.417-  17 1.87  54 1.87   3 1.99   8 1.99
 120  0.009  0.222  0.417-  77 1.87  18 1.87   3 1.99   8 1.99
 121  0.213  0.222  0.917-  11 1.87  60 1.87   9 1.99   2 1.99
 122  0.000  0.231  0.750-   9 1.87  82 1.87  24 1.99  19 1.99
 123  0.111  0.324  0.917-  23 1.87  24 1.87   9 1.99   2 1.99
 124  0.009  0.120  0.917-  83 1.87  12 1.87   9 1.99   2 1.99
 125  0.102  0.102  0.750-   9 1.87  10 1.87   7 1.99  12 1.99
 126  0.231  0.000  0.750-  10 1.87  33 1.87  43 1.99  48 1.99
 127  0.102  0.333  0.250-   3 1.87  16 1.87  13 1.99  18 1.99
 128  0.222  0.342  0.083-   2 1.87  49 1.87  16 1.99  23 1.99
 129  0.000  0.435  0.250-  88 1.87  15 1.87  18 1.99  13 1.99
 130  0.231  0.565  0.250-  16 1.87  15 1.87  61 1.99  66 1.99
 131  0.324  0.546  0.083-  50 1.87  61 1.87  16 1.99  23 1.99
 132  0.120  0.444  0.083-  14 1.87  13 1.87  16 1.99  23 1.99
 133  0.324  0.444  0.583-  56 1.87  55 1.87  22 1.99  17 1.99
 134  0.111  0.454  0.417-  17 1.87  18 1.87  15 1.99  20 1.99
 135  0.222  0.546  0.583-  20 1.87  67 1.87  22 1.99  17 1.99
 136  0.120  0.342  0.583-   8 1.87  19 1.87  22 1.99  17 1.99
 137  0.213  0.658  0.417-  29 1.87  66 1.87  15 1.99  20 1.99
 138  0.009  0.556  0.417-  89 1.87  30 1.87  15 1.99  20 1.99
 139  0.213  0.556  0.917-  23 1.87  72 1.87  21 1.99  14 1.99
 140  0.000  0.565  0.750-  21 1.87  94 1.87  36 1.99  31 1.99
 141  0.111  0.658  0.917-  35 1.87  36 1.87  21 1.99  14 1.99
 142  0.009  0.454  0.917-  95 1.87  24 1.87  21 1.99  14 1.99
 143  0.102  0.435  0.750-  21 1.87  22 1.87  19 1.99  24 1.99
 144  0.231  0.333  0.750-  22 1.87   9 1.87  55 1.99  60 1.99
 145  0.102  0.667  0.250-  15 1.87  28 1.87  25 1.99  30 1.99
 146  0.222  0.676  0.083-  14 1.87  61 1.87  28 1.99  35 1.99
 147  0.000  0.769  0.250- 100 1.87  27 1.87  30 1.99  25 1.99
 148  0.231  0.898  0.250-  28 1.87  27 1.87  37 1.99  42 1.99
 149  0.324  0.880  0.083-  62 1.87  37 1.87  28 1.99  35 1.99
 150  0.120  0.778  0.083-  26 1.87  25 1.87  28 1.99  35 1.99
 151  0.324  0.778  0.583-  68 1.87  67 1.87  34 1.99  29 1.99
 152  0.111  0.787  0.417-  29 1.87  30 1.87  27 1.99  32 1.99
 153  0.222  0.880  0.583-  32 1.87  43 1.87  34 1.99  29 1.99
 154  0.120  0.676  0.583-  20 1.87  31 1.87  34 1.99  29 1.99
 155  0.213  0.991  0.417-   5 1.87  42 1.87  27 1.99  32 1.99
 156  0.009  0.889  0.417- 101 1.87   6 1.87  27 1.99  32 1.99
 157  0.213  0.889  0.917-  35 1.87  48 1.87  33 1.99  26 1.99
 158  0.000  0.898  0.750-  33 1.87 106 1.87   7 1.99  12 1.99
 159  0.111  0.991  0.917-  11 1.87  12 1.87  33 1.99  26 1.99
 160  0.009  0.787  0.917- 107 1.87  36 1.87  33 1.99  26 1.99
 161  0.102  0.769  0.750-  33 1.87  34 1.87  31 1.99  36 1.99
 162  0.231  0.667  0.750-  34 1.87  21 1.87  67 1.99  72 1.99
 163  0.435  0.000  0.250-  63 1.87  40 1.87  42 1.99  37 1.99
 164  0.556  0.009  0.083-  62 1.87  73 1.87  40 1.99  47 1.99
 165  0.333  0.102  0.250-   4 1.87  39 1.87  37 1.99  42 1.99
 166  0.565  0.231  0.250-  40 1.87  39 1.87  85 1.99  90 1.99
 167  0.658  0.213  0.083-  74 1.87  85 1.87  40 1.99  47 1.99
 168  0.454  0.111  0.083-  38 1.87  37 1.87  40 1.99  47 1.99
 169  0.658  0.111  0.583-  80 1.87  79 1.87  46 1.99  41 1.99
 170  0.444  0.120  0.417-  41 1.87  42 1.87  39 1.99  44 1.99
 171  0.556  0.213  0.583-  44 1.87  91 1.87  46 1.99  41 1.99
 172  0.454  0.009  0.583-  68 1.87  43 1.87  46 1.99  41 1.99
 173  0.546  0.324  0.417-  53 1.87  90 1.87  39 1.99  44 1.99
 174  0.342  0.222  0.417-   5 1.87  54 1.87  39 1.99  44 1.99
 175  0.546  0.222  0.917-  47 1.87  96 1.87  45 1.99  38 1.99
 176  0.333  0.231  0.750-  45 1.87  10 1.87  55 1.99  60 1.99
 177  0.444  0.324  0.917-  59 1.87  60 1.87  45 1.99  38 1.99
 178  0.342  0.120  0.917-  11 1.87  48 1.87  45 1.99  38 1.99
 179  0.435  0.102  0.750-  45 1.87  46 1.87  43 1.99  48 1.99
 180  0.565  0.000  0.750-  46 1.87  69 1.87  79 1.99  84 1.99
 181  0.435  0.333  0.250-  39 1.87  52 1.87  49 1.99  54 1.99
 182  0.556  0.342  0.083-  38 1.87  85 1.87  52 1.99  59 1.99
 183  0.333  0.435  0.250-  16 1.87  51 1.87  49 1.99  54 1.99
 184  0.565  0.565  0.250-  52 1.87  51 1.87  97 1.99 102 1.99
 185  0.658  0.546  0.083-  86 1.87  97 1.87  52 1.99  59 1.99
 186  0.454  0.444  0.083-  50 1.87  49 1.87  52 1.99  59 1.99
 187  0.658  0.444  0.583-  92 1.87  91 1.87  58 1.99  53 1.99
 188  0.444  0.454  0.417-  53 1.87  54 1.87  51 1.99  56 1.99
 189  0.556  0.546  0.583-  56 1.87 103 1.87  58 1.99  53 1.99
 190  0.454  0.342  0.583-  44 1.87  55 1.87  58 1.99  53 1.99
 191  0.546  0.658  0.417-  65 1.87 102 1.87  51 1.99  56 1.99
 192  0.342  0.556  0.417-  17 1.87  66 1.87  51 1.99  56 1.99
 193  0.546  0.556  0.917-  59 1.87 108 1.87  57 1.99  50 1.99
 194  0.333  0.565  0.750-  57 1.87  22 1.87  67 1.99  72 1.99
 195  0.444  0.658  0.917-  71 1.87  72 1.87  57 1.99  50 1.99
 196  0.342  0.454  0.917-  23 1.87  60 1.87  57 1.99  50 1.99
 197  0.435  0.435  0.750-  57 1.87  58 1.87  55 1.99  60 1.99
 198  0.565  0.333  0.750-  58 1.87  45 1.87  91 1.99  96 1.99
 199  0.435  0.667  0.250-  51 1.87  64 1.87  61 1.99  66 1.99
 200  0.556  0.676  0.083-  50 1.87  97 1.87  64 1.99  71 1.99
 201  0.333  0.769  0.250-  28 1.87  63 1.87  61 1.99  66 1.99
 202  0.565  0.898  0.250-  64 1.87  63 1.87  73 1.99  78 1.99
 203  0.658  0.880  0.083-  98 1.87  73 1.87  64 1.99  71 1.99
 204  0.454  0.778  0.083-  62 1.87  61 1.87  64 1.99  71 1.99
 205  0.658  0.778  0.583- 104 1.87 103 1.87  70 1.99  65 1.99
 206  0.444  0.787  0.417-  65 1.87  66 1.87  63 1.99  68 1.99
 207  0.556  0.880  0.583-  68 1.87  79 1.87  70 1.99  65 1.99
 208  0.454  0.676  0.583-  56 1.87  67 1.87  70 1.99  65 1.99
 209  0.546  0.991  0.417-  41 1.87  78 1.87  63 1.99  68 1.99
 210  0.342  0.889  0.417-  29 1.87  42 1.87  63 1.99  68 1.99
 211  0.546  0.889  0.917-  71 1.87  84 1.87  69 1.99  62 1.99
 212  0.333  0.898  0.750-  69 1.87  34 1.87  48 1.99  43 1.99
 213  0.444  0.991  0.917-  47 1.87  48 1.87  69 1.99  62 1.99
 214  0.342  0.787  0.917-  35 1.87  72 1.87  69 1.99  62 1.99
 215  0.435  0.769  0.750-  69 1.87  70 1.87  67 1.99  72 1.99
 216  0.565  0.667  0.750-  70 1.87  57 1.87 103 1.99 108 1.99
 217  0.769  0.000  0.250-  99 1.87  76 1.87  78 1.99  73 1.99
 218  0.889  0.009  0.083-  98 1.87   1 1.87  76 1.99  83 1.99
 219  0.667  0.102  0.250-  40 1.87  75 1.87  73 1.99  78 1.99
 220  0.898  0.231  0.250-  76 1.87  75 1.87  13 1.99  18 1.99
 221  0.991  0.213  0.083-   2 1.87  13 1.87  76 1.99  83 1.99
 222  0.787  0.111  0.083-  74 1.87  73 1.87  76 1.99  83 1.99
 223  0.991  0.111  0.583-   8 1.87   7 1.87  82 1.99  77 1.99
 224  0.778  0.120  0.417-  77 1.87  78 1.87  75 1.99  80 1.99
 225  0.889  0.213  0.583-  80 1.87  19 1.87  82 1.99  77 1.99
 226  0.787  0.009  0.583- 104 1.87  79 1.87  82 1.99  77 1.99
 227  0.880  0.324  0.417-  89 1.87  18 1.87  75 1.99  80 1.99
 228  0.676  0.222  0.417-  41 1.87  90 1.87  75 1.99  80 1.99
 229  0.880  0.222  0.917-  83 1.87  24 1.87  81 1.99  74 1.99
 230  0.667  0.231  0.750-  81 1.87  46 1.87  91 1.99  96 1.99
 231  0.778  0.324  0.917-  95 1.87  96 1.87  81 1.99  74 1.99
 232  0.676  0.120  0.917-  47 1.87  84 1.87  81 1.99  74 1.99
 233  0.769  0.102  0.750-  81 1.87  82 1.87  79 1.99  84 1.99
 234  0.898  0.000  0.750-  82 1.87 105 1.87   7 1.99  12 1.99
 235  0.769  0.333  0.250-  75 1.87  88 1.87  85 1.99  90 1.99
 236  0.889  0.342  0.083-  74 1.87  13 1.87  88 1.99  95 1.99
 237  0.667  0.435  0.250-  52 1.87  87 1.87  85 1.99  90 1.99
 238  0.898  0.565  0.250-  88 1.87  87 1.87  25 1.99  30 1.99
 239  0.991  0.546  0.083-  14 1.87  25 1.87  88 1.99  95 1.99
 240  0.787  0.444  0.083-  86 1.87  85 1.87  88 1.99  95 1.99
 241  0.991  0.444  0.583-  20 1.87  19 1.87  94 1.99  89 1.99
 242  0.778  0.454  0.417-  89 1.87  90 1.87  87 1.99  92 1.99
 243  0.889  0.546  0.583-  92 1.87  31 1.87  94 1.99  89 1.99
 244  0.787  0.342  0.583-  80 1.87  91 1.87  94 1.99  89 1.99
 245  0.880  0.658  0.417- 101 1.87  30 1.87  87 1.99  92 1.99
 246  0.676  0.556  0.417-  53 1.87 102 1.87  87 1.99  92 1.99
 247  0.880  0.556  0.917-  95 1.87  36 1.87  93 1.99  86 1.99
 248  0.667  0.565  0.750-  93 1.87  58 1.87 103 1.99 108 1.99
 249  0.778  0.658  0.917- 107 1.87 108 1.87  93 1.99  86 1.99
 250  0.676  0.454  0.917-  59 1.87  96 1.87  93 1.99  86 1.99
 251  0.769  0.435  0.750-  93 1.87  94 1.87  91 1.99  96 1.99
 252  0.898  0.333  0.750-  94 1.87  81 1.87  19 1.99  24 1.99
 253  0.769  0.667  0.250-  87 1.87 100 1.87  97 1.99 102 1.99
 254  0.889  0.676  0.083-  86 1.87  25 1.87 100 1.99 107 1.99
 255  0.667  0.769  0.250-  64 1.87  99 1.87  97 1.99 102 1.99
 256  0.898  0.898  0.250- 100 1.87  99 1.87   1 1.99   6 1.99
 257  0.991  0.880  0.083-  26 1.87   1 1.87 100 1.99 107 1.99
 258  0.787  0.778  0.083-  98 1.87  97 1.87 100 1.99 107 1.99
 259  0.991  0.778  0.583-  32 1.87  31 1.87 106 1.99 101 1.99
 260  0.778  0.787  0.417- 101 1.87 102 1.87  99 1.99 104 1.99
 261  0.889  0.880  0.583- 104 1.87   7 1.87 106 1.99 101 1.99
 262  0.787  0.676  0.583-  92 1.87 103 1.87 106 1.99 101 1.99
 263  0.880  0.991  0.417-  77 1.87   6 1.87  99 1.99 104 1.99
 264  0.676  0.889  0.417-  65 1.87  78 1.87  99 1.99 104 1.99
 265  0.880  0.889  0.917- 107 1.87  12 1.87 105 1.99  98 1.99
 266  0.667  0.898  0.750- 105 1.87  70 1.87  84 1.99  79 1.99
 267  0.778  0.991  0.917-  83 1.87  84 1.87 105 1.99  98 1.99
 268  0.676  0.787  0.917-  71 1.87 108 1.87 105 1.99  98 1.99
 269  0.769  0.769  0.750- 105 1.87 106 1.87 103 1.99 108 1.99
 270  0.898  0.667  0.750- 106 1.87  93 1.87  31 1.99  36 1.99
 
  LATTYP: Found a hexagonal cell.
 ALAT       =    14.4150840000
 C/A-ratio  =     0.9098978542
  
  Lattice vectors:
  
 A1 = (  14.4150840000,   0.0000000000,   0.0000000000)
 A2 = (  -7.2075420000,  12.4838280000,   0.0000000000)
 A3 = (   0.0000000000,   0.0000000000,  13.1162540000)


Analysis of symmetry for initial positions (statically):
=====================================================================
 Subroutine PRICEL returns following result:
 
  LATTYP: Found a trigonal (rhomboedric) cell.
 ALAT       =     5.1779502167
 COS(alpha) =     0.5694279056
  
  Lattice vectors:
  
 A1 = (  -2.4025115975,   1.3870906129,   4.3720802946)
 A2 = (   0.0000024025,  -2.7741853871,   4.3720802946)
 A3 = (   2.4025091950,   1.3870947742,   4.3720934108)
 
  27 primitive cells build up your supercell.
 

 Routine SETGRP: Setting up the symmetry group for a 
 hexagonal supercell.


 Subroutine GETGRP returns: Found 12 space group operations
 (whereof  6 operations were pure point group operations)
 out of a pool of 24 trial point group operations.


The static configuration has the point symmetry S_6 .
 The point group associated with its full space group is D_3d.


Analysis of symmetry for dynamics (positions and initial velocities):
=====================================================================
 Subroutine PRICEL returns following result:
 
  LATTYP: Found a trigonal (rhomboedric) cell.
 ALAT       =     5.1779502167
 COS(alpha) =     0.5694279056
  
  Lattice vectors:
  
 A1 = (  -2.4025115975,   1.3870906129,   4.3720802946)
 A2 = (   0.0000024025,  -2.7741853871,   4.3720802946)
 A3 = (   2.4025091950,   1.3870947742,   4.3720934108)
 
  27 primitive cells build up your supercell.
 

 Routine SETGRP: Setting up the symmetry group for a 
 hexagonal supercell.


 Subroutine GETGRP returns: Found 12 space group operations
 (whereof  6 operations were pure point group operations)
 out of a pool of 24 trial point group operations.


The dynamic configuration has the point symmetry S_6 .
 The point group associated with its full space group is D_3d.


 Subroutine INISYM returns: Found 12 space group operations
 (whereof  6 operations are pure point group operations),
 and found    27 'primitive' translations


----------------------------------------------------------------------------------------

                                     Primitive cell                                     

  volume of cell :      87.4200

  direct lattice vectors                    reciprocal lattice vectors
    -2.402511597  1.387090613  4.372080295    -0.208115957  0.120155092  0.076241280
     0.000002403 -2.774185387  4.372080295    -0.000000000 -0.240310905  0.076241280
     2.402509195  1.387094774  4.372093411     0.208115333  0.120155452  0.076241280

  length of vectors
     5.177950217  5.177952362  5.177961292     0.252115510  0.252115180  0.252115167

  position of ions in fractional coordinates (direct lattice)
     0.147904000  0.147904000  0.147904000
     0.352096000  0.352096000  0.352096000
     0.647895000  0.647904000  0.647904000
     0.852087000  0.852096000  0.852096000
     0.943853082  0.250000000  0.556146000
     0.443845000  0.056146000  0.750000000
     0.556146000  0.943854000  0.250000000
     0.249991918  0.556146000  0.943854000
     0.749990082  0.443854000  0.056146000
     0.056143918  0.750000000  0.443854000

  ion indices of the primitive-cell ions
   primitive index   ion index
                 1           1
                 2          26
                 3          83
                 4          76
                 5         109
                 6         218
                 7         111
                 8         256
                 9         257
                10         114

----------------------------------------------------------------------------------------

 
 
 KPOINTS: Automatic generation                    

Automatic generation of k-mesh.
 Grid dimensions read from file:
 generate k-points for:    2    2    2

 Generating k-lattice:

  Cartesian coordinates                     Fractional coordinates (reciprocal lattice)
     0.034685889  0.020025909 -0.000000000     0.500000000  0.000000000  0.000000000
     0.000000000  0.040051817  0.000000000     0.000000000  0.500000000  0.000000000
     0.000000000 -0.000000000  0.038120640     0.000000000  0.000000000  0.500000000

  Length of vectors
     0.040051815  0.040051817  0.038120640

  Shift w.r.t. Gamma in fractional coordinates (k-lattice)
     0.000000000  0.000000000  0.000000000

 
 Subroutine IBZKPT returns following result:
 ===========================================
 
 Found      4 irreducible k-points:
 
 Following reciprocal coordinates:
            Coordinates               Weight
  0.000000  0.000000  0.000000      1.000000
  0.500000  0.000000  0.000000      3.000000
  0.000000  0.000000  0.500000      1.000000
  0.500000  0.000000  0.500000      3.000000
 
 Following cartesian coordinates:
            Coordinates               Weight
  0.000000  0.000000  0.000000      1.000000
  0.034686  0.020026  0.000000      3.000000
  0.000000  0.000000  0.038121      1.000000
  0.034686  0.020026  0.038121      3.000000
 


--------------------------------------------------------------------------------------------------------




 Dimension of arrays:
   k-points           NKPTS =      4   k-points in BZ     NKDIM =      4   number of bands    NBANDS=    784
   number of dos      NEDOS =    301   number of ions     NIONS =    270
   non local maximal  LDIM  =      8   non local SUM 2l+1 LMDIM =     22
   total plane-waves  NPLWV = 313600
   max r-space proj   IRMAX =   5481   max aug-charges    IRDMAX=   5370
   dimension x,y,z NGX =    70 NGY =   70 NGZ =   64
   dimension x,y,z NGXF=   140 NGYF=  140 NGZF=  128
   support grid    NGXF=   140 NGYF=  140 NGZF=  128
   ions per type =             108 162
   NGX,Y,Z   is equivalent  to a cutoff of   8.07,  8.07,  8.11 a.u.
   NGXF,Y,Z  is equivalent  to a cutoff of  16.15, 16.15, 16.22 a.u.

 SYSTEM =  NiAl                                    
 POSCAR =  Al  O                                   

 Startparameter for this run:
   NWRITE =      2    write-flag & timer
   PREC   = normal    normal or accurate (medium, high low for compatibility)
   ISTART =      0    job   : 0-new  1-cont  2-samecut
   ICHARG =      2    charge: 1-file 2-atom 10-const
   ISPIN  =      1    spin polarized calculation?
   LNONCOLLINEAR =      F non collinear calculations
   LSORBIT =      F    spin-orbit coupling
   INIWAV =      1    electr: 0-lowe 1-rand  2-diag
   LASPH  =      F    aspherical Exc in radial PAW
 Electronic Relaxation 1
   ENCUT  =  360.0 eV  26.46 Ry    5.14 a.u.  22.30 22.30 20.29*2*pi/ulx,y,z
   ENINI  =  360.0     initial cutoff
   ENAUG  = 1139.6 eV  augmentation charge cutoff
   NELM   =     60;   NELMIN=  6; NELMDL= -5     # of ELM steps 
   EDIFF  = 0.5E-05   stopping-criterion for ELM
   LREAL  =      T    real-space projection
   NLSPLINE    = F    spline interpolate recip. space projectors
   LCOMPAT=      F    compatible to vasp.4.4
   GGA_COMPAT  = T    GGA compatible to vasp.4.4-vasp.4.6
   LMAXPAW     = -100 max onsite density
   LMAXMIX     =    2 max onsite mixed and CHGCAR
   VOSKOWN=      0    Vosko Wilk Nusair interpolation
   ROPT   =   -0.00050  -0.00050
 Ionic relaxation
   EDIFFG = 0.5E-04   stopping-criterion for IOM
   NSW    =    150    number of steps for IOM
   NBLOCK =      1;   KBLOCK =    150    inner block; outer block 
   IBRION =      2    ionic relax: 0-MD 1-quasi-New 2-CG
   NFREE  =      1    steps in history (QN), initial steepest desc. (CG)
   ISIF   =      0    stress and relaxation
   IWAVPR =     11    prediction:  0-non 1-charg 2-wave 3-comb
   ISYM   =      2    0-nonsym 1-usesym 2-fastsym
   LCORR  =      T    Harris-Foulkes like correction to forces

   POTIM  = 0.2000    time-step for ionic-motion
   TEIN   =    0.0    initial temperature
   TEBEG  =    0.0;   TEEND  =   0.0 temperature during run
   SMASS  =  -3.00    Nose mass-parameter (am)
   estimated Nose-frequenzy (Omega)   =  0.10E-29 period in steps = 0.31E+47 mass=  -0.475E-26a.u.
   SCALEE = 1.0000    scale energy and forces
   NPACO  =    256;   APACO  = 16.0  distance and # of slots for P.C.
   PSTRESS=    0.0 pullay stress

  Mass of Ions in am
   POMASS =  26.98 16.00
  Ionic Valenz
   ZVAL   =   3.00  6.00
  Atomic Wigner-Seitz radii
   RWIGS  =  -1.00 -1.00
  virtual crystal weights 
   VCA    =   1.00  1.00
   NELECT =    1296.0000    total number of electrons
   NUPDOWN=      -1.0000    fix difference up-down

 DOS related values:
   EMIN   =  10.00;   EMAX   =-10.00  energy-range for DOS
   EFERMI =   0.00
   ISMEAR =     0;   SIGMA  =   0.05  broadening in eV -4-tet -1-fermi 0-gaus

 Electronic relaxation 2 (details)
   IALGO  =     38    algorithm
   LDIAG  =      T    sub-space diagonalisation (order eigenvalues)
   LSUBROT=      F    optimize rotation matrix (better conditioning)
   TURBO    =      0    0=normal 1=particle mesh
   IRESTART =      0    0=no restart 2=restart with 2 vectors
   NREBOOT  =      0    no. of reboots
   NMIN     =      0    reboot dimension
   EREF     =   0.00    reference energy to select bands
   IMIX   =      4    mixing-type and parameters
     AMIX     =   0.40;   BMIX     =  1.00
     AMIX_MAG =   1.60;   BMIX_MAG =  1.00
     AMIN     =   0.10
     WC   =   100.;   INIMIX=   1;  MIXPRE=   1;  MAXMIX= -45

 Intra band minimization:
   WEIMIN = 0.0010     energy-eigenvalue tresh-hold
   EBREAK =  0.16E-08  absolut break condition
   DEPER  =   0.30     relativ break condition  

   TIME   =   0.40     timestep for ELM

  volume/ion in A,a.u.               =       8.74        58.99
  Fermi-wavevector in a.u.,A,eV,Ry     =   1.340556  2.533283 24.450893  1.797090
  Thomas-Fermi vector in A             =   2.468859
 
 Write flags
   LWAVE        =      F    write WAVECAR
   LDOWNSAMPLE  =      F    k-point downsampling of WAVECAR
   LCHARG       =      F    write CHGCAR
   LVTOT        =      F    write LOCPOT, total local potential
   LVHAR        =      F    write LOCPOT, Hartree potential only
   LELF         =      F    write electronic localiz. function (ELF)
   LORBIT       =      0    0 simple, 1 ext, 2 COOP (PROOUT), +10 PAW based schemes


 Dipole corrections
   LMONO  =      F    monopole corrections only (constant potential shift)
   LDIPOL =      F    correct potential (dipole corrections)
   IDIPOL =      0    1-x, 2-y, 3-z, 4-all directions 
   EPSILON=  1.0000000 bulk dielectric constant

 Exchange correlation treatment:
   GGA     =    --    GGA type
   LEXCH   =     8    internal setting for exchange type
   VOSKOWN=      0    Vosko Wilk Nusair interpolation
   LHFCALC =     F    Hartree Fock is set to
   LHFONE  =     F    Hartree Fock one center treatment
   AEXX    =    0.0000 exact exchange contribution

 Linear response parameters
   LEPSILON=     F    determine dielectric tensor
   LRPA    =     F    only Hartree local field effects (RPA)
   LNABLA  =     F    use nabla operator in PAW spheres
   LVEL    =     F    velocity operator in full k-point grid
   LINTERFAST=   F  fast interpolation
   KINTER  =     0    interpolate to denser k-point grid
   CSHIFT  =0.1000    complex shift for real part using Kramers Kronig
   OMEGAMAX=  -1.0    maximum frequency
   DEG_THRESHOLD= 0.2000000E-02 threshold for treating states as degnerate
   RTIME   =   -0.100 relaxation time in fs
  (WPLASMAI=    0.000 imaginary part of plasma frequency in eV, 0.658/RTIME)
   DFIELD  = 0.0000000 0.0000000 0.0000000 field for delta impulse in time
 
 Orbital magnetization related:
   ORBITALMAG=     F  switch on orbital magnetization
   LCHIMAG   =     F  perturbation theory with respect to B field
   DQ        =  0.001000  dq finite difference perturbation B field
   LLRAUG    =     F  two centre corrections for induced B field



--------------------------------------------------------------------------------------------------------


 conjugate gradient relaxation of ions
 charge density and potential will be updated during run
 non-spin polarized calculation
 Variant of blocked Davidson
 Davidson routine will perform the subspace rotation
 perform sub-space diagonalisation
    after iterative eigenvector-optimisation
 modified Broyden-mixing scheme, WC =      100.0
 initial mixing is a Kerker type mixing with AMIX =  0.4000 and BMIX =      1.0000
 Hartree-type preconditioning will be used
 using additional bands           136
 real space projection scheme for non local part
 use partial core corrections
 calculate Harris-corrections to forces 
   (improved forces if not selfconsistent)
 use gradient corrections 
 use of overlap-Matrix (Vanderbilt PP)
 Gauss-broadening in eV      SIGMA  =   0.05


--------------------------------------------------------------------------------------------------------


  energy-cutoff  :      360.00
  volume of cell :     2360.34
      direct lattice vectors                 reciprocal lattice vectors
    14.415084000  0.000000000  0.000000000     0.069371778  0.040051817 -0.000000000
    -7.207542000 12.483828000  0.000000000     0.000000000  0.080103635  0.000000000
     0.000000000  0.000000000 13.116254000     0.000000000 -0.000000000  0.076241280

  length of vectors
    14.415084000 14.415083184 13.116254000     0.080103630  0.080103635  0.076241280


 
 k-points in units of 2pi/SCALE and weight: Automatic generation                    
   0.00000000  0.00000000  0.00000000       0.125
   0.03468589  0.02002591  0.00000000       0.375
   0.00000000  0.00000000  0.03812064       0.125
   0.03468589  0.02002591  0.03812064       0.375
 
 k-points in reciprocal lattice and weights: Automatic generation                    
   0.00000000  0.00000000  0.00000000       0.125
   0.50000000  0.00000000  0.00000000       0.375
   0.00000000  0.00000000  0.50000000       0.125
   0.50000000  0.00000000  0.50000000       0.375
 
 position of ions in fractional coordinates (direct lattice) 
   0.00000000  0.00000000  0.14790400
   0.11111100  0.22222233  0.01876300
   0.11111100  0.22222233  0.31457100
   0.22222233  0.11111100  0.18542900
   0.22222233  0.11111100  0.48123700
   0.00000000  0.00000000  0.35209600
   0.00000000  0.00000000  0.64790400
   0.11111100  0.22222233  0.51876300
   0.11111100  0.22222233  0.81457100
   0.22222233  0.11111100  0.68542900
   0.22222233  0.11111100  0.98123700
   0.00000000  0.00000000  0.85209600
   0.00000000  0.33333333  0.14790400
   0.11111100  0.55555567  0.01876300
   0.11111100  0.55555567  0.31457100
   0.22222233  0.44444433  0.18542900
   0.22222233  0.44444433  0.48123700
   0.00000000  0.33333333  0.35209600
   0.00000000  0.33333333  0.64790400
   0.11111100  0.55555567  0.51876300
   0.11111100  0.55555567  0.81457100
   0.22222233  0.44444433  0.68542900
   0.22222233  0.44444433  0.98123700
   0.00000000  0.33333333  0.85209600
   0.00000000  0.66666667  0.14790400
   0.11111100  0.88888900  0.01876300
   0.11111100  0.88888900  0.31457100
   0.22222233  0.77777767  0.18542900
   0.22222233  0.77777767  0.48123700
   0.00000000  0.66666667  0.35209600
   0.00000000  0.66666667  0.64790400
   0.11111100  0.88888900  0.51876300
   0.11111100  0.88888900  0.81457100
   0.22222233  0.77777767  0.68542900
   0.22222233  0.77777767  0.98123700
   0.00000000  0.66666667  0.85209600
   0.33333333  0.00000000  0.14790400
   0.44444433  0.22222233  0.01876300
   0.44444433  0.22222233  0.31457100
   0.55555567  0.11111100  0.18542900
   0.55555567  0.11111100  0.48123700
   0.33333333  0.00000000  0.35209600
   0.33333333  0.00000000  0.64790400
   0.44444433  0.22222233  0.51876300
   0.44444433  0.22222233  0.81457100
   0.55555567  0.11111100  0.68542900
   0.55555567  0.11111100  0.98123700
   0.33333333  0.00000000  0.85209600
   0.33333333  0.33333333  0.14790400
   0.44444433  0.55555567  0.01876300
   0.44444433  0.55555567  0.31457100
   0.55555567  0.44444433  0.18542900
   0.55555567  0.44444433  0.48123700
   0.33333333  0.33333333  0.35209600
   0.33333333  0.33333333  0.64790400
   0.44444433  0.55555567  0.51876300
   0.44444433  0.55555567  0.81457100
   0.55555567  0.44444433  0.68542900
   0.55555567  0.44444433  0.98123700
   0.33333333  0.33333333  0.85209600
   0.33333333  0.66666667  0.14790400
   0.44444433  0.88888900  0.01876300
   0.44444433  0.88888900  0.31457100
   0.55555567  0.77777767  0.18542900
   0.55555567  0.77777767  0.48123700
   0.33333333  0.66666667  0.35209600
   0.33333333  0.66666667  0.64790400
   0.44444433  0.88888900  0.51876300
   0.44444433  0.88888900  0.81457100
   0.55555567  0.77777767  0.68542900
   0.55555567  0.77777767  0.98123700
   0.33333333  0.66666667  0.85209600
   0.66666667  0.00000000  0.14790400
   0.77777767  0.22222233  0.01876300
   0.77777767  0.22222233  0.31457100
   0.88888900  0.11111100  0.18542900
   0.88888900  0.11111100  0.48123700
   0.66666667  0.00000000  0.35209600
   0.66666667  0.00000000  0.64790400
   0.77777767  0.22222233  0.51876300
   0.77777767  0.22222233  0.81457100
   0.88888900  0.11111100  0.68542900
   0.88888900  0.11111100  0.98123700
   0.66666667  0.00000000  0.85209600
   0.66666667  0.33333333  0.14790400
   0.77777767  0.55555567  0.01876300
   0.77777767  0.55555567  0.31457100
   0.88888900  0.44444433  0.18542900
   0.88888900  0.44444433  0.48123700
   0.66666667  0.33333333  0.35209600
   0.66666667  0.33333333  0.64790400
   0.77777767  0.55555567  0.51876300
   0.77777767  0.55555567  0.81457100
   0.88888900  0.44444433  0.68542900
   0.88888900  0.44444433  0.98123700
   0.66666667  0.33333333  0.85209600
   0.66666667  0.66666667  0.14790400
   0.77777767  0.88888900  0.01876300
   0.77777767  0.88888900  0.31457100
   0.88888900  0.77777767  0.18542900
   0.88888900  0.77777767  0.48123700
   0.66666667  0.66666667  0.35209600
   0.66666667  0.66666667  0.64790400
   0.77777767  0.88888900  0.51876300
   0.77777767  0.88888900  0.81457100
   0.88888900  0.77777767  0.68542900
   0.88888900  0.77777767  0.98123700
   0.66666667  0.66666667  0.85209600
   0.10204867  0.00000000  0.25000000
   0.22222233  0.00906233  0.08333300
   0.00000000  0.10204867  0.25000000
   0.23128467  0.23128467  0.25000000
   0.32427100  0.21315967  0.08333300
   0.12017367  0.11111100  0.08333300
   0.32427100  0.11111100  0.58333300
   0.11111100  0.12017367  0.41666700
   0.22222233  0.21315967  0.58333300
   0.12017367  0.00906233  0.58333300
   0.21315967  0.32427100  0.41666700
   0.00906233  0.22222233  0.41666700
   0.21315967  0.22222233  0.91666700
   0.00000000  0.23128467  0.75000000
   0.11111100  0.32427100  0.91666700
   0.00906233  0.12017367  0.91666700
   0.10204867  0.10204867  0.75000000
   0.23128467  0.00000000  0.75000000
   0.10204867  0.33333333  0.25000000
   0.22222233  0.34239567  0.08333300
   0.00000000  0.43538200  0.25000000
   0.23128467  0.56461800  0.25000000
   0.32427100  0.54649300  0.08333300
   0.12017367  0.44444433  0.08333300
   0.32427100  0.44444433  0.58333300
   0.11111100  0.45350700  0.41666700
   0.22222233  0.54649300  0.58333300
   0.12017367  0.34239567  0.58333300
   0.21315967  0.65760433  0.41666700
   0.00906233  0.55555567  0.41666700
   0.21315967  0.55555567  0.91666700
   0.00000000  0.56461800  0.75000000
   0.11111100  0.65760433  0.91666700
   0.00906233  0.45350700  0.91666700
   0.10204867  0.43538200  0.75000000
   0.23128467  0.33333333  0.75000000
   0.10204867  0.66666667  0.25000000
   0.22222233  0.67572900  0.08333300
   0.00000000  0.76871533  0.25000000
   0.23128467  0.89795133  0.25000000
   0.32427100  0.87982633  0.08333300
   0.12017367  0.77777767  0.08333300
   0.32427100  0.77777767  0.58333300
   0.11111100  0.78684033  0.41666700
   0.22222233  0.87982633  0.58333300
   0.12017367  0.67572900  0.58333300
   0.21315967  0.99093767  0.41666700
   0.00906233  0.88888900  0.41666700
   0.21315967  0.88888900  0.91666700
   0.00000000  0.89795133  0.75000000
   0.11111100  0.99093767  0.91666700
   0.00906233  0.78684033  0.91666700
   0.10204867  0.76871533  0.75000000
   0.23128467  0.66666667  0.75000000
   0.43538200  0.00000000  0.25000000
   0.55555567  0.00906233  0.08333300
   0.33333333  0.10204867  0.25000000
   0.56461800  0.23128467  0.25000000
   0.65760433  0.21315967  0.08333300
   0.45350700  0.11111100  0.08333300
   0.65760433  0.11111100  0.58333300
   0.44444433  0.12017367  0.41666700
   0.55555567  0.21315967  0.58333300
   0.45350700  0.00906233  0.58333300
   0.54649300  0.32427100  0.41666700
   0.34239567  0.22222233  0.41666700
   0.54649300  0.22222233  0.91666700
   0.33333333  0.23128467  0.75000000
   0.44444433  0.32427100  0.91666700
   0.34239567  0.12017367  0.91666700
   0.43538200  0.10204867  0.75000000
   0.56461800  0.00000000  0.75000000
   0.43538200  0.33333333  0.25000000
   0.55555567  0.34239567  0.08333300
   0.33333333  0.43538200  0.25000000
   0.56461800  0.56461800  0.25000000
   0.65760433  0.54649300  0.08333300
   0.45350700  0.44444433  0.08333300
   0.65760433  0.44444433  0.58333300
   0.44444433  0.45350700  0.41666700
   0.55555567  0.54649300  0.58333300
   0.45350700  0.34239567  0.58333300
   0.54649300  0.65760433  0.41666700
   0.34239567  0.55555567  0.41666700
   0.54649300  0.55555567  0.91666700
   0.33333333  0.56461800  0.75000000
   0.44444433  0.65760433  0.91666700
   0.34239567  0.45350700  0.91666700
   0.43538200  0.43538200  0.75000000
   0.56461800  0.33333333  0.75000000
   0.43538200  0.66666667  0.25000000
   0.55555567  0.67572900  0.08333300
   0.33333333  0.76871533  0.25000000
   0.56461800  0.89795133  0.25000000
   0.65760433  0.87982633  0.08333300
   0.45350700  0.77777767  0.08333300
   0.65760433  0.77777767  0.58333300
   0.44444433  0.78684033  0.41666700
   0.55555567  0.87982633  0.58333300
   0.45350700  0.67572900  0.58333300
   0.54649300  0.99093767  0.41666700
   0.34239567  0.88888900  0.41666700
   0.54649300  0.88888900  0.91666700
   0.33333333  0.89795133  0.75000000
   0.44444433  0.99093767  0.91666700
   0.34239567  0.78684033  0.91666700
   0.43538200  0.76871533  0.75000000
   0.56461800  0.66666667  0.75000000
   0.76871533  0.00000000  0.25000000
   0.88888900  0.00906233  0.08333300
   0.66666667  0.10204867  0.25000000
   0.89795133  0.23128467  0.25000000
   0.99093767  0.21315967  0.08333300
   0.78684033  0.11111100  0.08333300
   0.99093767  0.11111100  0.58333300
   0.77777767  0.12017367  0.41666700
   0.88888900  0.21315967  0.58333300
   0.78684033  0.00906233  0.58333300
   0.87982633  0.32427100  0.41666700
   0.67572900  0.22222233  0.41666700
   0.87982633  0.22222233  0.91666700
   0.66666667  0.23128467  0.75000000
   0.77777767  0.32427100  0.91666700
   0.67572900  0.12017367  0.91666700
   0.76871533  0.10204867  0.75000000
   0.89795133  0.00000000  0.75000000
   0.76871533  0.33333333  0.25000000
   0.88888900  0.34239567  0.08333300
   0.66666667  0.43538200  0.25000000
   0.89795133  0.56461800  0.25000000
   0.99093767  0.54649300  0.08333300
   0.78684033  0.44444433  0.08333300
   0.99093767  0.44444433  0.58333300
   0.77777767  0.45350700  0.41666700
   0.88888900  0.54649300  0.58333300
   0.78684033  0.34239567  0.58333300
   0.87982633  0.65760433  0.41666700
   0.67572900  0.55555567  0.41666700
   0.87982633  0.55555567  0.91666700
   0.66666667  0.56461800  0.75000000
   0.77777767  0.65760433  0.91666700
   0.67572900  0.45350700  0.91666700
   0.76871533  0.43538200  0.75000000
   0.89795133  0.33333333  0.75000000
   0.76871533  0.66666667  0.25000000
   0.88888900  0.67572900  0.08333300
   0.66666667  0.76871533  0.25000000
   0.89795133  0.89795133  0.25000000
   0.99093767  0.87982633  0.08333300
   0.78684033  0.77777767  0.08333300
   0.99093767  0.77777767  0.58333300
   0.77777767  0.78684033  0.41666700
   0.88888900  0.87982633  0.58333300
   0.78684033  0.67572900  0.58333300
   0.87982633  0.99093767  0.41666700
   0.67572900  0.88888900  0.41666700
   0.87982633  0.88888900  0.91666700
   0.66666667  0.89795133  0.75000000
   0.77777767  0.99093767  0.91666700
   0.67572900  0.78684033  0.91666700
   0.76871533  0.76871533  0.75000000
   0.89795133  0.66666667  0.75000000
 
 position of ions in cartesian coordinates  (Angst):
   0.00000000  0.00000000  1.93994643
  -0.00000240  2.77418539  0.24610027
  -0.00000240  2.77418539  4.12599314
   2.40251640  1.38709061  2.43213386
   2.40251640  1.38709061  6.31202673
   0.00000000  0.00000000  4.61818057
   0.00000000  0.00000000  8.49807343
  -0.00000240  2.77418539  6.80422727
  -0.00000240  2.77418539 10.68412014
   2.40251640  1.38709061  8.99026086
   2.40251640  1.38709061 12.87015373
   0.00000000  0.00000000 11.17630757
  -2.40251400  4.16127600  1.93994643
  -2.40251640  6.93546139  0.24610027
  -2.40251640  6.93546139  4.12599314
   0.00000240  5.54836661  2.43213386
   0.00000240  5.54836661  6.31202673
  -2.40251400  4.16127600  4.61818057
  -2.40251400  4.16127600  8.49807343
  -2.40251640  6.93546139  6.80422727
  -2.40251640  6.93546139 10.68412014
   0.00000240  5.54836661  8.99026086
   0.00000240  5.54836661 12.87015373
  -2.40251400  4.16127600 11.17630757
  -4.80502800  8.32255200  1.93994643
  -4.80503040 11.09673739  0.24610027
  -4.80503040 11.09673739  4.12599314
  -2.40251160  9.70964261  2.43213386
  -2.40251160  9.70964261  6.31202673
  -4.80502800  8.32255200  4.61818057
  -4.80502800  8.32255200  8.49807343
  -4.80503040 11.09673739  6.80422727
  -4.80503040 11.09673739 10.68412014
  -2.40251160  9.70964261  8.99026086
  -2.40251160  9.70964261 12.87015373
  -4.80502800  8.32255200 11.17630757
   4.80502800  0.00000000  1.93994643
   4.80502560  2.77418539  0.24610027
   4.80502560  2.77418539  4.12599314
   7.20754440  1.38709061  2.43213386
   7.20754440  1.38709061  6.31202673
   4.80502800  0.00000000  4.61818057
   4.80502800  0.00000000  8.49807343
   4.80502560  2.77418539  6.80422727
   4.80502560  2.77418539 10.68412014
   7.20754440  1.38709061  8.99026086
   7.20754440  1.38709061 12.87015373
   4.80502800  0.00000000 11.17630757
   2.40251400  4.16127600  1.93994643
   2.40251160  6.93546139  0.24610027
   2.40251160  6.93546139  4.12599314
   4.80503040  5.54836661  2.43213386
   4.80503040  5.54836661  6.31202673
   2.40251400  4.16127600  4.61818057
   2.40251400  4.16127600  8.49807343
   2.40251160  6.93546139  6.80422727
   2.40251160  6.93546139 10.68412014
   4.80503040  5.54836661  8.99026086
   4.80503040  5.54836661 12.87015373
   2.40251400  4.16127600 11.17630757
   0.00000000  8.32255200  1.93994643
  -0.00000240 11.09673739  0.24610027
  -0.00000240 11.09673739  4.12599314
   2.40251640  9.70964261  2.43213386
   2.40251640  9.70964261  6.31202673
   0.00000000  8.32255200  4.61818057
   0.00000000  8.32255200  8.49807343
  -0.00000240 11.09673739  6.80422727
  -0.00000240 11.09673739 10.68412014
   2.40251640  9.70964261  8.99026086
   2.40251640  9.70964261 12.87015373
   0.00000000  8.32255200 11.17630757
   9.61005600  0.00000000  1.93994643
   9.61005360  2.77418539  0.24610027
   9.61005360  2.77418539  4.12599314
  12.01257240  1.38709061  2.43213386
  12.01257240  1.38709061  6.31202673
   9.61005600  0.00000000  4.61818057
   9.61005600  0.00000000  8.49807343
   9.61005360  2.77418539  6.80422727
   9.61005360  2.77418539 10.68412014
  12.01257240  1.38709061  8.99026086
  12.01257240  1.38709061 12.87015373
   9.61005600  0.00000000 11.17630757
   7.20754200  4.16127600  1.93994643
   7.20753960  6.93546139  0.24610027
   7.20753960  6.93546139  4.12599314
   9.61005840  5.54836661  2.43213386
   9.61005840  5.54836661  6.31202673
   7.20754200  4.16127600  4.61818057
   7.20754200  4.16127600  8.49807343
   7.20753960  6.93546139  6.80422727
   7.20753960  6.93546139 10.68412014
   9.61005840  5.54836661  8.99026086
   9.61005840  5.54836661 12.87015373
   7.20754200  4.16127600 11.17630757
   4.80502800  8.32255200  1.93994643
   4.80502560 11.09673739  0.24610027
   4.80502560 11.09673739  4.12599314
   7.20754440  9.70964261  2.43213386
   7.20754440  9.70964261  6.31202673
   4.80502800  8.32255200  4.61818057
   4.80502800  8.32255200  8.49807343
   4.80502560 11.09673739  6.80422727
   4.80502560 11.09673739 10.68412014
   7.20754440  9.70964261  8.99026086
   7.20754440  9.70964261 12.87015373
   4.80502800  8.32255200 11.17630757
   1.47104010  0.00000000  3.27906350
   3.13803645  0.11313261  1.09301679
  -0.73552005  1.27395800  3.27906350
   1.66699395  2.88731800  3.27906350
   3.13803645  2.66104862  1.09301679
   0.93147630  1.38709061  1.09301679
   3.87355650  1.38709061  7.65114379
   0.73551765  1.50022738  5.46511021
   1.66699635  2.66104862  7.65114379
   1.66699635  0.11313261  7.65114379
   0.73551765  4.04814339  5.46511021
  -1.47104250  2.77418539  5.46511021
   1.47103770  2.77418539 12.02323721
  -1.66699395  2.88731800  9.83719050
  -0.73552245  4.04814339 12.02323721
  -0.73552245  1.50022738 12.02323721
   0.73552005  1.27395800  9.83719050
   3.33398790  0.00000000  9.83719050
  -0.93147390  4.16127600  3.27906350
   0.73552245  4.27440861  1.09301679
  -3.13803405  5.43523400  3.27906350
  -0.73552005  7.04859400  3.27906350
   0.73552245  6.82232462  1.09301679
  -1.47103770  5.54836661  1.09301679
   1.47104250  5.54836661  7.65114379
  -1.66699635  5.66150338  5.46511021
  -0.73551765  6.82232462  7.65114379
  -0.73551765  4.27440861  7.65114379
  -1.66699635  8.20941939  5.46511021
  -3.87355650  6.93546139  5.46511021
  -0.93147630  6.93546139 12.02323721
  -4.06950795  7.04859400  9.83719050
  -3.13803645  8.20941939 12.02323721
  -3.13803645  5.66150338 12.02323721
  -1.66699395  5.43523400  9.83719050
   0.93147390  4.16127600  9.83719050
  -3.33398790  8.32255200  3.27906350
  -1.66699155  8.43568461  1.09301679
  -5.54054805  9.59651000  3.27906350
  -3.13803405 11.20987000  3.27906350
  -1.66699155 10.98360062  1.09301679
  -3.87355170  9.70964261  1.09301679
  -0.93147150  9.70964261  7.65114379
  -4.06951035  9.82277938  5.46511021
  -3.13803165 10.98360062  7.65114379
  -3.13803165  8.43568461  7.65114379
  -4.06951035 12.37069539  5.46511021
  -6.27607050 11.09673739  5.46511021
  -3.33399030 11.09673739 12.02323721
  -6.47202195 11.20987000  9.83719050
  -5.54055045 12.37069539 12.02323721
  -5.54055045  9.82277938 12.02323721
  -4.06950795  9.59651000  9.83719050
  -1.47104010  8.32255200  9.83719050
   6.27606810  0.00000000  3.27906350
   7.94306445  0.11313261  1.09301679
   4.06950795  1.27395800  3.27906350
   6.47202195  2.88731800  3.27906350
   7.94306445  2.66104862  1.09301679
   5.73650430  1.38709061  1.09301679
   8.67858450  1.38709061  7.65114379
   5.54054565  1.50022738  5.46511021
   6.47202435  2.66104862  7.65114379
   6.47202435  0.11313261  7.65114379
   5.54054565  4.04814339  5.46511021
   3.33398550  2.77418539  5.46511021
   6.27606570  2.77418539 12.02323721
   3.13803405  2.88731800  9.83719050
   4.06950555  4.04814339 12.02323721
   4.06950555  1.50022738 12.02323721
   5.54054805  1.27395800  9.83719050
   8.13901590  0.00000000  9.83719050
   3.87355410  4.16127600  3.27906350
   5.54055045  4.27440861  1.09301679
   1.66699395  5.43523400  3.27906350
   4.06950795  7.04859400  3.27906350
   5.54055045  6.82232462  1.09301679
   3.33399030  5.54836661  1.09301679
   6.27607050  5.54836661  7.65114379
   3.13803165  5.66150338  5.46511021
   4.06951035  6.82232462  7.65114379
   4.06951035  4.27440861  7.65114379
   3.13803165  8.20941939  5.46511021
   0.93147150  6.93546139  5.46511021
   3.87355170  6.93546139 12.02323721
   0.73552005  7.04859400  9.83719050
   1.66699155  8.20941939 12.02323721
   1.66699155  5.66150338 12.02323721
   3.13803405  5.43523400  9.83719050
   5.73650190  4.16127600  9.83719050
   1.47104010  8.32255200  3.27906350
   3.13803645  8.43568461  1.09301679
  -0.73552005  9.59651000  3.27906350
   1.66699395 11.20987000  3.27906350
   3.13803645 10.98360062  1.09301679
   0.93147630  9.70964261  1.09301679
   3.87355650  9.70964261  7.65114379
   0.73551765  9.82277938  5.46511021
   1.66699635 10.98360062  7.65114379
   1.66699635  8.43568461  7.65114379
   0.73551765 12.37069539  5.46511021
  -1.47104250 11.09673739  5.46511021
   1.47103770 11.09673739 12.02323721
  -1.66699395 11.20987000  9.83719050
  -0.73552245 12.37069539 12.02323721
  -0.73552245  9.82277938 12.02323721
   0.73552005  9.59651000  9.83719050
   3.33398790  8.32255200  9.83719050
  11.08109610  0.00000000  3.27906350
  12.74809245  0.11313261  1.09301679
   8.87453595  1.27395800  3.27906350
  11.27704995  2.88731800  3.27906350
  12.74809245  2.66104862  1.09301679
  10.54153230  1.38709061  1.09301679
  13.48361250  1.38709061  7.65114379
  10.34557365  1.50022738  5.46511021
  11.27705235  2.66104862  7.65114379
  11.27705235  0.11313261  7.65114379
  10.34557365  4.04814339  5.46511021
   8.13901350  2.77418539  5.46511021
  11.08109370  2.77418539 12.02323721
   7.94306205  2.88731800  9.83719050
   8.87453355  4.04814339 12.02323721
   8.87453355  1.50022738 12.02323721
  10.34557605  1.27395800  9.83719050
  12.94404390  0.00000000  9.83719050
   8.67858210  4.16127600  3.27906350
  10.34557845  4.27440861  1.09301679
   6.47202195  5.43523400  3.27906350
   8.87453595  7.04859400  3.27906350
  10.34557845  6.82232462  1.09301679
   8.13901830  5.54836661  1.09301679
  11.08109850  5.54836661  7.65114379
   7.94305965  5.66150338  5.46511021
   8.87453835  6.82232462  7.65114379
   8.87453835  4.27440861  7.65114379
   7.94305965  8.20941939  5.46511021
   5.73649950  6.93546139  5.46511021
   8.67857970  6.93546139 12.02323721
   5.54054805  7.04859400  9.83719050
   6.47201955  8.20941939 12.02323721
   6.47201955  5.66150338 12.02323721
   7.94306205  5.43523400  9.83719050
  10.54152990  4.16127600  9.83719050
   6.27606810  8.32255200  3.27906350
   7.94306445  8.43568461  1.09301679
   4.06950795  9.59651000  3.27906350
   6.47202195 11.20987000  3.27906350
   7.94306445 10.98360062  1.09301679
   5.73650430  9.70964261  1.09301679
   8.67858450  9.70964261  7.65114379
   5.54054565  9.82277938  5.46511021
   6.47202435 10.98360062  7.65114379
   6.47202435  8.43568461  7.65114379
   5.54054565 12.37069539  5.46511021
   3.33398550 11.09673739  5.46511021
   6.27606570 11.09673739 12.02323721
   3.13803405 11.20987000  9.83719050
   4.06950555 12.37069539 12.02323721
   4.06950555  9.82277938 12.02323721
   5.54054805  9.59651000  9.83719050
   8.13901590  8.32255200  9.83719050
 


--------------------------------------------------------------------------------------------------------


 k-point   1 :   0.0000 0.0000 0.0000  plane waves:   36617
 k-point   2 :   0.5000 0.0000 0.0000  plane waves:   36624
 k-point   3 :   0.0000 0.0000 0.5000  plane waves:   36640
 k-point   4 :   0.5000 0.0000 0.5000  plane waves:   36636

 maximum and minimum number of plane-waves per node :     36640    36617

 maximum number of plane-waves:     36640
 maximum index in each direction: 
   IXMAX=   22   IYMAX=   22   IZMAX=   20
   IXMIN=  -22   IYMIN=  -22   IZMIN=  -20


 serial   3D FFT for wavefunctions
 parallel 3D FFT for charge:
    minimum data exchange during FFTs selected (reduces bandwidth)


 total amount of memory used by VASP MPI-rank0  2611223. kBytes
=======================================================================

   base      :      30000. kBytes
   nonlr-proj:     218742. kBytes
   fftplans  :      86708. kBytes
   grid      :     154683. kBytes
   one-center:       6272. kBytes
   wavefun   :    2114818. kBytes
 
     INWAV:  cpu time    0.0001: real time    0.0003
 Broyden mixing: mesh for mixing (old mesh)
   NGX = 45   NGY = 45   NGZ = 41
  (NGX  =140   NGY  =140   NGZ  =128)
  gives a total of  83025 points

 initial charge density was supplied:
 charge density of overlapping atoms calculated
 number of electron    1296.0000000 magnetization 
 keeping initial charge density in first step


--------------------------------------------------------------------------------------------------------


 Maximum index for non-local projection operator          5279
 Maximum index for augmentation-charges          5067 (set IRDMAX)


--------------------------------------------------------------------------------------------------------


 First call to EWALD:  gamma=   0.133
 Maximum number of real-space cells 3x 3x 3
 Maximum number of reciprocal cells 3x 3x 3

    FEWALD:  cpu time    0.3939: real time    0.3939


--------------------------------------- Iteration      1(   1)  ---------------------------------------


    POTLOK:  cpu time    0.0410: real time    0.0410
    SETDIJ:  cpu time    0.3818: real time    0.3818
     EDDAV:  cpu time   10.0384: real time   10.0611
       DOS:  cpu time    0.0031: real time    0.0031
    --------------------------------------------
      LOOP:  cpu time   10.4643: real time   10.4870

 eigenvalue-minimisations  :  6288
 total energy-change (2. order) : 0.8279726E+04  (-0.5560504E+05)
 number of electron    1296.0000000 magnetization 
 augmentation part     1296.0000000 magnetization 

 Free energy of the ion-electron system (eV)
  ---------------------------------------------------
  alpha Z        PSCENC =      2193.09994489
  Ewald energy   TEWEN  =    -64126.56142883
  -Hartree energ DENC   =    -17456.00231448
  -exchange      EXHF   =         0.00000000
  -V(xc)+E(xc)   XCENC  =      1518.50600396
  PAW double counting   =     63712.16139133   -60130.92667576
  entropy T*S    EENTRO =        -0.04294286
  eigenvalues    EBANDS =      6805.39975152
  atomic energy  EATOM  =     75764.09199595
  Solvation  Ediel_sol  =         0.00000000
  ---------------------------------------------------
  free energy    TOTEN  =      8279.72572571 eV

  energy without entropy =     8279.76866857  energy(sigma->0) =     8279.74719714


--------------------------------------------------------------------------------------------------------




--------------------------------------- Iteration      1(   2)  ---------------------------------------


     EDDAV:  cpu time   12.1400: real time   12.1422
       DOS:  cpu time    0.0013: real time    0.0013
    --------------------------------------------
      LOOP:  cpu time   12.1413: real time   12.1435

 eigenvalue-minimisations  :  7968
 total energy-change (2. order) :-0.9627694E+04  (-0.9331201E+04)
 number of electron    1296.0000000 magnetization 
 augmentation part     1296.0000000 magnetization 

 Free energy of the ion-electron system (eV)
  ---------------------------------------------------
  alpha Z        PSCENC =      2193.09994489
  Ewald energy   TEWEN  =    -64126.56142883
  -Hartree energ DENC   =    -17456.00231448
  -exchange      EXHF   =         0.00000000
  -V(xc)+E(xc)   XCENC  =      1518.50600396
  PAW double counting   =     63712.16139133   -60130.92667576
  entropy T*S    EENTRO =        -0.00000000
  eigenvalues    EBANDS =     -2822.33731974
  atomic energy  EATOM  =     75764.09199595
  Solvation  Ediel_sol  =         0.00000000
  ---------------------------------------------------
  free energy    TOTEN  =     -1347.96840269 eV

  energy without entropy =    -1347.96840269  energy(sigma->0) =    -1347.96840269


--------------------------------------------------------------------------------------------------------




--------------------------------------- Iteration      1(   3)  ---------------------------------------


     EDDAV:  cpu time   13.3091: real time   13.3115
       DOS:  cpu time    0.0014: real time    0.0014
    --------------------------------------------
      LOOP:  cpu time   13.3105: real time   13.3129

 eigenvalue-minimisations  :  8880
 total energy-change (2. order) :-0.8259654E+03  (-0.8221283E+03)
 number of electron    1296.0000000 magnetization 
 augmentation part     1296.0000000 magnetization 

 Free energy of the ion-electron system (eV)
  ---------------------------------------------------
  alpha Z        PSCENC =      2193.09994489
  Ewald energy   TEWEN  =    -64126.56142883
  -Hartree energ DENC   =    -17456.00231448
  -exchange      EXHF   =         0.00000000
  -V(xc)+E(xc)   XCENC  =      1518.50600396
  PAW double counting   =     63712.16139133   -60130.92667576
  entropy T*S    EENTRO =        -0.00000000
  eigenvalues    EBANDS =     -3648.30271831
  atomic energy  EATOM  =     75764.09199595
  Solvation  Ediel_sol  =         0.00000000
  ---------------------------------------------------
  free energy    TOTEN  =     -2173.93380126 eV

  energy without entropy =    -2173.93380126  energy(sigma->0) =    -2173.93380126


--------------------------------------------------------------------------------------------------------




--------------------------------------- Iteration      1(   4)  ---------------------------------------


     EDDAV:  cpu time   12.7006: real time   12.7028
       DOS:  cpu time    0.0015: real time    0.0015
    --------------------------------------------
      LOOP:  cpu time   12.7021: real time   12.7044

 eigenvalue-minimisations  :  8392
 total energy-change (2. order) :-0.2268710E+02  (-0.2261184E+02)
 number of electron    1296.0000000 magnetization 
 augmentation part     1296.0000000 magnetization 

 Free energy of the ion-electron system (eV)
  ---------------------------------------------------
  alpha Z        PSCENC =      2193.09994489
  Ewald energy   TEWEN  =    -64126.56142883
  -Hartree energ DENC   =    -17456.00231448
  -exchange      EXHF   =         0.00000000
  -V(xc)+E(xc)   XCENC  =      1518.50600396
  PAW double counting   =     63712.16139133   -60130.92667576
  entropy T*S    EENTRO =        -0.00000000
  eigenvalues    EBANDS =     -3670.98982049
  atomic energy  EATOM  =     75764.09199595
  Solvation  Ediel_sol  =         0.00000000
  ---------------------------------------------------
  free energy    TOTEN  =     -2196.62090344 eV

  energy without entropy =    -2196.62090344  energy(sigma->0) =    -2196.62090344


--------------------------------------------------------------------------------------------------------




--------------------------------------- Iteration      1(   5)  ---------------------------------------


     EDDAV:  cpu time   13.4109: real time   13.4132
       DOS:  cpu time    0.0014: real time    0.0014
    CHARGE:  cpu time    0.5610: real time    0.5704
    MIXING:  cpu time    0.0385: real time    0.0385
    --------------------------------------------
      LOOP:  cpu time   14.0117: real time   14.0235

 eigenvalue-minimisations  :  8960
 total energy-change (2. order) :-0.8713103E+00  (-0.8704432E+00)
 number of electron    1295.9999967 magnetization 
 augmentation part      110.8609748 magnetization 

 Broyden mixing:
  rms(total) = 0.10092E+02    rms(broyden)= 0.10083E+02
  rms(prec ) = 0.11546E+02
  weight for this iteration     100.00

 Free energy of the ion-electron system (eV)
  ---------------------------------------------------
  alpha Z        PSCENC =      2193.09994489
  Ewald energy   TEWEN  =    -64126.56142883
  -Hartree energ DENC   =    -17456.00231448
  -exchange      EXHF   =         0.00000000
  -V(xc)+E(xc)   XCENC  =      1518.50600396
  PAW double counting   =     63712.16139133   -60130.92667576
  entropy T*S    EENTRO =        -0.00000000
  eigenvalues    EBANDS =     -3671.86113083
  atomic energy  EATOM  =     75764.09199595
  Solvation  Ediel_sol  =         0.00000000
  ---------------------------------------------------
  free energy    TOTEN  =     -2197.49221377 eV

  energy without entropy =    -2197.49221377  energy(sigma->0) =    -2197.49221377


--------------------------------------------------------------------------------------------------------




--------------------------------------- Iteration      1(   6)  ---------------------------------------


    POTLOK:  cpu time    0.0359: real time    0.0360
    SETDIJ:  cpu time    0.3934: real time    0.3934
     EDDAV:  cpu time   13.3995: real time   13.4017
       DOS:  cpu time    0.0015: real time    0.0015
    CHARGE:  cpu time    0.5585: real time    0.5586
    MIXING:  cpu time    0.0425: real time    0.0436
    --------------------------------------------
      LOOP:  cpu time   14.4313: real time   14.4349

 eigenvalue-minimisations  :  8952
 total energy-change (2. order) : 0.1989861E+03  (-0.8702140E+02)
 number of electron    1295.9999973 magnetization 
 augmentation part       90.3616382 magnetization 

 Broyden mixing:
  rms(total) = 0.83621E+01    rms(broyden)= 0.83614E+01
  rms(prec ) = 0.84460E+01
  weight for this iteration     100.00

 eigenvalues of (default mixing * dielectric matrix)
  average eigenvalue GAMMA=   0.6737
  0.6737

 Free energy of the ion-electron system (eV)
  ---------------------------------------------------
  alpha Z        PSCENC =      2193.09994489
  Ewald energy   TEWEN  =    -64126.56142883
  -Hartree energ DENC   =    -19915.93906861
  -exchange      EXHF   =         0.00000000
  -V(xc)+E(xc)   XCENC  =      1690.02994243
  PAW double counting   =     80689.88453847   -77119.60420154
  entropy T*S    EENTRO =        -0.00000000
  eigenvalues    EBANDS =     -1173.50783888
  atomic energy  EATOM  =     75764.09199595
  Solvation  Ediel_sol  =         0.00000000
  ---------------------------------------------------
  free energy    TOTEN  =     -1998.50611613 eV

  energy without entropy =    -1998.50611613  energy(sigma->0) =    -1998.50611613


--------------------------------------------------------------------------------------------------------




--------------------------------------- Iteration      1(   7)  ---------------------------------------


    POTLOK:  cpu time    0.0367: real time    0.0369
    SETDIJ:  cpu time    0.3981: real time    0.3981
     EDDAV:  cpu time   12.2227: real time   12.2248
       DOS:  cpu time    0.0015: real time    0.0015
    CHARGE:  cpu time    0.5428: real time    0.5429
    MIXING:  cpu time    0.0440: real time    0.0446
    --------------------------------------------
      LOOP:  cpu time   13.2458: real time   13.2488

 eigenvalue-minimisations  :  8024
 total energy-change (2. order) : 0.1096975E+01  (-0.1346956E+01)
 number of electron    1295.9999973 magnetization 
 augmentation part       89.9085356 magnetization 

 Broyden mixing:
  rms(total) = 0.62856E+01    rms(broyden)= 0.62855E+01
  rms(prec ) = 0.63388E+01
  weight for this iteration     100.00

 eigenvalues of (default mixing * dielectric matrix)
  average eigenvalue GAMMA=   1.9663
  1.0512  2.8815

 Free energy of the ion-electron system (eV)
  ---------------------------------------------------
  alpha Z        PSCENC =      2193.09994489
  Ewald energy   TEWEN  =    -64126.56142883
  -Hartree energ DENC   =    -20075.89868296
  -exchange      EXHF   =         0.00000000
  -V(xc)+E(xc)   XCENC  =      1705.43255000
  PAW double counting   =     93165.66230595   -89603.84475215
  entropy T*S    EENTRO =        -0.00000000
  eigenvalues    EBANDS =     -1019.39107392
  atomic energy  EATOM  =     75764.09199595
  Solvation  Ediel_sol  =         0.00000000
  ---------------------------------------------------
[...]
      0.00000      8.32255      4.61892         0.000000     -0.000000      0.000148
      0.00000      8.32255      8.49733         0.000000     -0.000000     -0.000148
     -0.00000     11.09674      6.80497         0.000000     -0.000000      0.000148
     -0.00000     11.09674     10.68338        -0.000000      0.000000     -0.000148
      2.40252      9.70964      8.99100         0.000000     -0.000000      0.000148
      2.40252      9.70964     12.86941         0.000000     -0.000000     -0.000148
      0.00000      8.32255     11.17705        -0.000000     -0.000000      0.000148
      9.61006     -0.00000      1.93920         0.000000      0.000000     -0.000148
      9.61005      2.77419      0.24684         0.000000     -0.000000      0.000148
      9.61005      2.77419      4.12525         0.000000     -0.000000     -0.000148
     12.01257      1.38709      2.43288         0.000000     -0.000000      0.000148
     12.01257      1.38709      6.31128        -0.000000      0.000000     -0.000148
      9.61006     -0.00000      4.61892        -0.000000     -0.000000      0.000148
      9.61006     -0.00000      8.49733         0.000000     -0.000000     -0.000148
      9.61005      2.77419      6.80497         0.000000      0.000000      0.000148
      9.61005      2.77419     10.68338         0.000000      0.000000     -0.000148
     12.01257      1.38709      8.99100         0.000000     -0.000000      0.000148
     12.01257      1.38709     12.86941        -0.000000     -0.000000     -0.000148
      9.61006     -0.00000     11.17705         0.000000      0.000000      0.000148
      7.20754      4.16128      1.93920        -0.000000      0.000000     -0.000148
      7.20754      6.93546      0.24684        -0.000000     -0.000000      0.000148
      7.20754      6.93546      4.12525        -0.000000     -0.000000     -0.000148
      9.61006      5.54837      2.43288         0.000000      0.000000      0.000148
      9.61006      5.54837      6.31128        -0.000000      0.000000     -0.000148
      7.20754      4.16128      4.61892        -0.000000     -0.000000      0.000148
      7.20754      4.16128      8.49733         0.000000     -0.000000     -0.000148
      7.20754      6.93546      6.80497         0.000000      0.000000      0.000148
      7.20754      6.93546     10.68338         0.000000      0.000000     -0.000148
      9.61006      5.54837      8.99100        -0.000000     -0.000000      0.000148
      9.61006      5.54837     12.86941         0.000000     -0.000000     -0.000148
      7.20754      4.16128     11.17705         0.000000      0.000000      0.000148
      4.80503      8.32255      1.93920        -0.000000      0.000000     -0.000148
      4.80503     11.09674      0.24684         0.000000     -0.000000      0.000148
      4.80503     11.09674      4.12525        -0.000000     -0.000000     -0.000148
      7.20754      9.70964      2.43288         0.000000      0.000000      0.000148
      7.20754      9.70964      6.31128         0.000000      0.000000     -0.000148
      4.80503      8.32255      4.61892         0.000000     -0.000000      0.000148
      4.80503      8.32255      8.49733        -0.000000     -0.000000     -0.000148
      4.80503     11.09674      6.80497         0.000000     -0.000000      0.000148
      4.80503     11.09674     10.68338        -0.000000      0.000000     -0.000148
      7.20754      9.70964      8.99100         0.000000     -0.000000      0.000148
      7.20754      9.70964     12.86941        -0.000000     -0.000000     -0.000148
      4.80503      8.32255     11.17705         0.000000      0.000000      0.000148
      1.47079     -0.00000      3.27906         0.000185      0.000000     -0.000000
      3.13791      0.11335      1.09302         0.000092     -0.000160      0.000000
     -0.73540      1.27374      3.27906        -0.000092      0.000160      0.000000
      1.66712      2.88753      3.27906        -0.000092     -0.000160      0.000000
      3.13791      2.66083      1.09302         0.000092      0.000160     -0.000000
      0.93173      1.38709      1.09302        -0.000185     -0.000000      0.000000
      3.87331      1.38709      7.65114         0.000185     -0.000000      0.000000
      0.73539      1.50044      5.46511         0.000092     -0.000160      0.000000
      1.66712      2.66083      7.65114        -0.000092      0.000160      0.000000
      1.66712      0.11335      7.65114        -0.000092     -0.000160      0.000000
      0.73539      4.04793      5.46511         0.000092      0.000160     -0.000000
     -1.47079      2.77419      5.46511        -0.000185     -0.000000      0.000000
      1.47079      2.77419     12.02324         0.000185     -0.000000     -0.000000
     -1.66712      2.88753      9.83719         0.000092     -0.000160      0.000000
     -0.73540      4.04793     12.02324        -0.000092      0.000160     -0.000000
     -0.73540      1.50044     12.02324        -0.000092     -0.000160      0.000000
      0.73540      1.27374      9.83719         0.000092      0.000160      0.000000
      3.33424     -0.00000      9.83719        -0.000185     -0.000000      0.000000
     -0.93172      4.16128      3.27906         0.000185     -0.000000      0.000000
      0.73540      4.27463      1.09302         0.000092     -0.000160      0.000000
     -3.13791      5.43502      3.27906        -0.000092      0.000160      0.000000
     -0.73540      7.04881      3.27906        -0.000092     -0.000160      0.000000
      0.73540      6.82211      1.09302         0.000092      0.000160      0.000000
     -1.47079      5.54837      1.09302        -0.000185      0.000000     -0.000000
      1.47079      5.54837      7.65114         0.000185     -0.000000     -0.000000
     -1.66712      5.66172      5.46511         0.000092     -0.000160     -0.000000
     -0.73539      6.82211      7.65114        -0.000092      0.000160      0.000000
     -0.73539      4.27463      7.65114        -0.000092     -0.000160      0.000000
     -1.66712      8.20920      5.46511         0.000092      0.000160      0.000000
     -3.87331      6.93546      5.46511        -0.000185      0.000000      0.000000
     -0.93173      6.93546     12.02324         0.000185      0.000000     -0.000000
     -4.06963      7.04881      9.83719         0.000092     -0.000160      0.000000
     -3.13791      8.20920     12.02324        -0.000092      0.000160      0.000000
     -3.13791      5.66172     12.02324        -0.000092     -0.000160      0.000000
     -1.66712      5.43502      9.83719         0.000092      0.000160      0.000000
      0.93172      4.16128      9.83719        -0.000185     -0.000000      0.000000
     -3.33424      8.32255      3.27906         0.000185     -0.000000     -0.000000
     -1.66712      8.43590      1.09302         0.000092     -0.000160      0.000000
     -5.54042      9.59629      3.27906        -0.000092      0.000160     -0.000000
     -3.13791     11.21009      3.27906        -0.000092     -0.000160      0.000000
     -1.66712     10.98338      1.09302         0.000092      0.000160      0.000000
     -3.87330      9.70964      1.09302        -0.000185     -0.000000     -0.000000
     -0.93172      9.70964      7.65114         0.000185     -0.000000      0.000000
     -4.06964      9.82300      5.46511         0.000092     -0.000160      0.000000
     -3.13791     10.98338      7.65114        -0.000092      0.000160     -0.000000
     -3.13791      8.43590      7.65114        -0.000092     -0.000160      0.000000
     -4.06964     12.37048      5.46511         0.000092      0.000160      0.000000
     -6.27582     11.09674      5.46511        -0.000185     -0.000000      0.000000
     -3.33424     11.09674     12.02324         0.000185     -0.000000      0.000000
     -6.47215     11.21009      9.83719         0.000092     -0.000160     -0.000000
     -5.54043     12.37048     12.02324        -0.000092      0.000160      0.000000
     -5.54043      9.82300     12.02324        -0.000092     -0.000160      0.000000
     -4.06963      9.59629      9.83719         0.000092      0.000160     -0.000000
     -1.47079      8.32255      9.83719        -0.000185     -0.000000      0.000000
      6.27582     -0.00000      3.27906         0.000185      0.000000      0.000000
      7.94294      0.11335      1.09302         0.000092     -0.000160      0.000000
      4.06963      1.27374      3.27906        -0.000092      0.000160      0.000000
      6.47215      2.88753      3.27906        -0.000092     -0.000160      0.000000
      7.94294      2.66083      1.09302         0.000092      0.000160      0.000000
      5.73675      1.38709      1.09302        -0.000185     -0.000000      0.000000
      8.67833      1.38709      7.65114         0.000185     -0.000000      0.000000
      5.54042      1.50044      5.46511         0.000092     -0.000160     -0.000000
      6.47215      2.66083      7.65114        -0.000092      0.000160      0.000000
      6.47215      0.11335      7.65114        -0.000092     -0.000160      0.000000
      5.54042      4.04793      5.46511         0.000092      0.000160     -0.000000
      3.33424      2.77419      5.46511        -0.000185     -0.000000     -0.000000
      6.27582      2.77419     12.02324         0.000185     -0.000000      0.000000
      3.13791      2.88753      9.83719         0.000092     -0.000160      0.000000
      4.06963      4.04793     12.02324        -0.000092      0.000160     -0.000000
      4.06963      1.50044     12.02324        -0.000092     -0.000160      0.000000
      5.54042      1.27374      9.83719         0.000092      0.000160      0.000000
      8.13927     -0.00000      9.83719        -0.000185     -0.000000      0.000000
      3.87330      4.16128      3.27906         0.000185     -0.000000      0.000000
      5.54043      4.27463      1.09302         0.000092     -0.000160      0.000000
      1.66712      5.43502      3.27906        -0.000092      0.000160     -0.000000
      4.06963      7.04881      3.27906        -0.000092     -0.000160      0.000000
      5.54043      6.82211      1.09302         0.000092      0.000160      0.000000
      3.33424      5.54837      1.09302        -0.000185     -0.000000      0.000000
      6.27582      5.54837      7.65114         0.000185     -0.000000      0.000000
      3.13791      5.66172      5.46511         0.000092     -0.000160      0.000000
      4.06964      6.82211      7.65114        -0.000092      0.000160      0.000000
      4.06964      4.27463      7.65114        -0.000092     -0.000160     -0.000000
      3.13791      8.20920      5.46511         0.000092      0.000160      0.000000
      0.93172      6.93546      5.46511        -0.000185     -0.000000      0.000000
      3.87330      6.93546     12.02324         0.000185     -0.000000     -0.000000
      0.73540      7.04881      9.83719         0.000092     -0.000160     -0.000000
      1.66712      8.20920     12.02324        -0.000092      0.000160      0.000000
      1.66712      5.66172     12.02324        -0.000092     -0.000160      0.000000
      3.13791      5.43502      9.83719         0.000092      0.000160      0.000000
      5.73675      4.16128      9.83719        -0.000185      0.000000     -0.000000
      1.47079      8.32255      3.27906         0.000185     -0.000000     -0.000000
      3.13791      8.43590      1.09302         0.000092     -0.000160      0.000000
     -0.73540      9.59629      3.27906        -0.000092      0.000160      0.000000
      1.66712     11.21009      3.27906        -0.000092     -0.000160      0.000000
      3.13791     10.98338      1.09302         0.000092      0.000160     -0.000000
      0.93173      9.70964      1.09302        -0.000185     -0.000000     -0.000000
      3.87331      9.70964      7.65114         0.000185     -0.000000      0.000000
      0.73539      9.82300      5.46511         0.000092     -0.000160      0.000000
      1.66712     10.98338      7.65114        -0.000092      0.000160      0.000000
      1.66712      8.43590      7.65114        -0.000092     -0.000160     -0.000000
      0.73539     12.37048      5.46511         0.000092      0.000160      0.000000
     -1.47079     11.09674      5.46511        -0.000185     -0.000000      0.000000
      1.47079     11.09674     12.02324         0.000185     -0.000000      0.000000
     -1.66712     11.21009      9.83719         0.000092     -0.000160      0.000000
     -0.73540     12.37048     12.02324        -0.000092      0.000160     -0.000000
     -0.73540      9.82300     12.02324        -0.000092     -0.000160      0.000000
      0.73540      9.59629      9.83719         0.000092      0.000160      0.000000
      3.33424      8.32255      9.83719        -0.000185     -0.000000      0.000000
     11.08085     -0.00000      3.27906         0.000185     -0.000000     -0.000000
     12.74797      0.11335      1.09302         0.000092     -0.000160      0.000000
      8.87466      1.27374      3.27906        -0.000092      0.000160     -0.000000
     11.27717      2.88753      3.27906        -0.000092     -0.000160      0.000000
     12.74797      2.66083      1.09302         0.000092      0.000160      0.000000
     10.54178      1.38709      1.09302        -0.000185     -0.000000      0.000000
     13.48336      1.38709      7.65114         0.000185     -0.000000     -0.000000
     10.34545      1.50044      5.46511         0.000092     -0.000160      0.000000
     11.27718      2.66083      7.65114        -0.000092      0.000160     -0.000000
     11.27718      0.11335      7.65114        -0.000092     -0.000160      0.000000
     10.34545      4.04793      5.46511         0.000092      0.000160      0.000000
      8.13926      2.77419      5.46511        -0.000185      0.000000      0.000000
     11.08084      2.77419     12.02324         0.000185      0.000000      0.000000
      7.94294      2.88753      9.83719         0.000092     -0.000160      0.000000
      8.87466      4.04793     12.02324        -0.000092      0.000160      0.000000
      8.87466      1.50044     12.02324        -0.000092     -0.000160     -0.000000
     10.34545      1.27374      9.83719         0.000092      0.000160      0.000000
     12.94429     -0.00000      9.83719        -0.000185     -0.000000      0.000000
      8.67833      4.16128      3.27906         0.000185     -0.000000     -0.000000
     10.34545      4.27463      1.09302         0.000092     -0.000160      0.000000
      6.47215      5.43502      3.27906        -0.000092      0.000160      0.000000
      8.87466      7.04881      3.27906        -0.000092     -0.000160      0.000000
     10.34545      6.82211      1.09302         0.000092      0.000160      0.000000
      8.13927      5.54837      1.09302        -0.000185     -0.000000      0.000000
     11.08085      5.54837      7.65114         0.000185     -0.000000      0.000000
      7.94293      5.66172      5.46511         0.000092     -0.000160      0.000000
      8.87466      6.82211      7.65114        -0.000092      0.000160      0.000000
      8.87466      4.27463      7.65114        -0.000092     -0.000160      0.000000
      7.94293      8.20920      5.46511         0.000092      0.000160      0.000000
      5.73675      6.93546      5.46511        -0.000185      0.000000      0.000000
      8.67833      6.93546     12.02324         0.000185     -0.000000      0.000000
      5.54042      7.04881      9.83719         0.000092     -0.000160      0.000000
      6.47214      8.20920     12.02324        -0.000092      0.000160      0.000000
      6.47214      5.66172     12.02324        -0.000092     -0.000160      0.000000
      7.94294      5.43502      9.83719         0.000092      0.000160     -0.000000
     10.54178      4.16128      9.83719        -0.000185     -0.000000      0.000000
      6.27582      8.32255      3.27906         0.000185     -0.000000      0.000000
      7.94294      8.43590      1.09302         0.000092     -0.000160      0.000000
      4.06963      9.59629      3.27906        -0.000092      0.000160      0.000000
      6.47215     11.21009      3.27906        -0.000092     -0.000160      0.000000
      7.94294     10.98338      1.09302         0.000092      0.000160      0.000000
      5.73675      9.70964      1.09302        -0.000185     -0.000000      0.000000
      8.67833      9.70964      7.65114         0.000185     -0.000000     -0.000000
      5.54042      9.82300      5.46511         0.000092     -0.000160      0.000000
      6.47215     10.98338      7.65114        -0.000092      0.000160      0.000000
      6.47215      8.43590      7.65114        -0.000092     -0.000160      0.000000
      5.54042     12.37048      5.46511         0.000092      0.000160      0.000000
      3.33424     11.09674      5.46511        -0.000185     -0.000000      0.000000
      6.27582     11.09674     12.02324         0.000185     -0.000000      0.000000
      3.13791     11.21009      9.83719         0.000092     -0.000160      0.000000
      4.06963     12.37048     12.02324        -0.000092      0.000160      0.000000
      4.06963      9.82300     12.02324        -0.000092     -0.000160      0.000000
      5.54042      9.59629      9.83719         0.000092      0.000160      0.000000
      8.13927      8.32255      9.83719        -0.000185     -0.000000     -0.000000
 -----------------------------------------------------------------------------------
    total drift:                                0.000000      0.000000      0.000000


--------------------------------------------------------------------------------------------------------



  FREE ENERGIE OF THE ION-ELECTRON SYSTEM (eV)
  ---------------------------------------------------
  free  energy   TOTEN  =     -2059.12212452 eV

  energy  without entropy=    -2059.12212452  energy(sigma->0) =    -2059.12212452
 
 d Force = 0.2653264E-03[ 0.315E-05, 0.528E-03]  d Energy = 0.2191370E-03 0.462E-04
 d Force = 0.5184521E-02[ 0.529E-02, 0.508E-02]  d Ewald  = 0.5141838E-02 0.427E-04


--------------------------------------------------------------------------------------------------------


    POTLOK:  cpu time    0.4434: real time    0.4434


--------------------------------------------------------------------------------------------------------


 stress matrix after NEB project (eV)
    -63.72465      0.00000      0.00000
      0.00000    -63.72465      0.00000
      0.00000      0.00000    -63.20922
  FORCES: max atom, RMS     0.000185    0.000171
  FORCE total and by dimension    0.002810    0.000185
  Stress total and by dimension  110.077559   63.724655


--------------------------------------------------------------------------------------------------------


  
 reached required accuracy - stopping structural energy minimisation
     LOOP+:  cpu time   72.3826: real time   72.3970
    4ORBIT:  cpu time    0.0000: real time    0.0000

 total amount of memory used by VASP MPI-rank0  2611223. kBytes
=======================================================================

   base      :      30000. kBytes
   nonlr-proj:     218742. kBytes
   fftplans  :      86708. kBytes
   grid      :     154683. kBytes
   one-center:       6272. kBytes
   wavefun   :    2114818. kBytes
 
  
  
 General timing and accounting informations for this job:
 ========================================================
  
                  Total CPU time used (sec):      364.736
                            User time (sec):      360.315
                          System time (sec):        4.421
                         Elapsed time (sec):      366.639
  
                   Maximum memory used (kb):     4901500.
                   Average memory used (kb):          N/A
  
                          Minor page faults:      4509571
                          Major page faults:            0
                 Voluntary context switches:        10049
