<?xml version="1.0" encoding="ISO-8859-1"?>
<modeling>
 <generator>
  <i name="program" type="string">vasp </i>
  <i name="version" type="string">6.2.1  </i>
  <i name="subversion" type="string">16May21 (build May 12 2022 08:28:04) complex                          parallel </i>
  <i name="platform" type="string">LinuxPGI </i>
  <i name="date" type="string">2022 07 10 </i>
  <i name="time" type="string">08:33:54 </i>
 </generator>
 <incar>
  <i type="string" name="SYSTEM">NiAl</i>
  <i type="int" name="ISTART">     0</i>
  <i type="int" name="NELMIN">     6</i>
  <i type="int" name="IBRION">     2</i>
  <i name="EDIFF">      0.00000500</i>
  <i type="int" name="NSW">   150</i>
  <i type="int" name="ISIF">     0</i>
  <i name="ENCUT">    360.00000000</i>
  <i name="POTIM">      0.20000000</i>
  <i type="string" name="LREAL">Auto</i>
  <i type="logical" name="LPLANE"> T  </i>
  <i type="int" name="ISMEAR">     0</i>
  <i name="SIGMA">      0.05000000</i>
  <i type="logical" name="LWAVE"> F  </i>
  <i type="logical" name="LCHARG"> F  </i>
  <i type="int" name="IVDW">    12</i>
 </incar>
 <primitive_cell>
  <structure name="primitive_cell" >
   <crystal>
    <varray name="basis" >
     <v>      -2.40251160       1.38709061       4.37208029 </v>
     <v>       0.00000240      -2.77418539       4.37208029 </v>
     <v>       2.40250919       1.38709477       4.37209341 </v>
    </varray>
    <i name="volume">     87.41995402 </i>
    <varray name="rec_basis" >
     <v>      -0.20811596       0.12015509       0.07624128 </v>
     <v>      -0.00000000      -0.24031090       0.07624128 </v>
     <v>       0.20811533       0.12015545       0.07624128 </v>
    </varray>
   </crystal>
   <varray name="positions" >
    <v>       0.14790400       0.14790400       0.14790400 </v>
    <v>       0.35209600       0.35209600       0.35209600 </v>
    <v>       0.64789500       0.64790400       0.64790400 </v>
    <v>       0.85208700       0.85209600       0.85209600 </v>
    <v>       0.94385308       0.25000000       0.55614600 </v>
    <v>       0.44384500       0.05614600       0.75000000 </v>
    <v>       0.55614600       0.94385400       0.25000000 </v>
    <v>       0.24999192       0.55614600       0.94385400 </v>
    <v>       0.74999008       0.44385400       0.05614600 </v>
    <v>       0.05614392       0.75000000       0.44385400 </v>
   </varray>
  </structure>
  <varray name="primitive_index" >
   <v type="int" >        1 </v>
   <v type="int" >       26 </v>
   <v type="int" >       83 </v>
   <v type="int" >       76 </v>
   <v type="int" >      109 </v>
   <v type="int" >      218 </v>
   <v type="int" >      111 </v>
   <v type="int" >      256 </v>
   <v type="int" >      257 </v>
   <v type="int" >      114 </v>
  </varray>
 </primitive_cell>
 <kpoints>
  <generation param="Gamma">
   <v type="int" name="divisions">       2        2        2 </v>
   <v name="usershift">      0.00000000       0.00000000       0.00000000 </v>
   <v name="genvec1">      0.50000000       0.00000000       0.00000000 </v>
   <v name="genvec2">      0.00000000       0.50000000       0.00000000 </v>
   <v name="genvec3">      0.00000000       0.00000000       0.50000000 </v>
   <v name="shift">      0.00000000       0.00000000       0.00000000 </v>
  </generation>
  <varray name="kpointlist" >
   <v>       0.00000000       0.00000000       0.00000000 </v>
   <v>       0.50000000       0.00000000       0.00000000 </v>
   <v>       0.00000000       0.00000000       0.50000000 </v>
   <v>       0.50000000       0.00000000       0.50000000 </v>
  </varray>
  <varray name="weights" >
   <v>       0.12500000 </v>
   <v>       0.37500000 </v>
   <v>       0.12500000 </v>
   <v>       0.37500000 </v>
  </varray>
 </kpoints>
 <parameters>
  <separator name="general" >
   <i type="string" name="SYSTEM">NiAl</i>
   <i type="logical" name="LCOMPAT"> F  </i>
  </separator>
  <separator name="electronic" >
   <i type="string" name="PREC">normal</i>
   <i name="ENMAX">    360.00000000</i>
   <i name="ENAUG">   1139.60900000</i>
   <i name="EDIFF">      0.00000500</i>
   <i type="int" name="IALGO">    38</i>
   <i type="int" name="IWAVPR">    11</i>
   <i type="int" name="NBANDS">   784</i>
   <i type="int" name="NBANDSLOW">    -1</i>
   <i type="int" name="NBANDSHIGH">    -1</i>
   <i name="NELECT">   1296.00000000</i>
   <i type="int" name="TURBO">     0</i>
   <i type="int" name="IRESTART">     0</i>
   <i type="int" name="NREBOOT">     0</i>
   <i type="int" name="NMIN">     0</i>
   <i name="EREF">      0.00000000</i>
   <separator name="electronic smearing" >
    <i type="int" name="ISMEAR">     0</i>
    <i name="SIGMA">      0.05000000</i>
    <i name="KSPACING">      0.50000000</i>
    <i type="logical" name="KGAMMA"> T  </i>
    <i type="logical" name="KBLOWUP"> T  </i>
   </separator>
   <separator name="electronic projectors" >
    <i type="logical" name="LREAL"> T  </i>
    <v name="ROPT">     -0.00050000     -0.00050000</v>
    <i type="int" name="LMAXPAW">  -100</i>
    <i type="int" name="LMAXMIX">     2</i>
    <i type="logical" name="NLSPLINE"> F  </i>
   </separator>
   <separator name="electronic startup" >
    <i type="int" name="ISTART">     0</i>
    <i type="int" name="ICHARG">     2</i>
    <i type="int" name="INIWAV">     1</i>
   </separator>
   <separator name="electronic spin" >
    <i type="int" name="ISPIN">     1</i>
    <i type="logical" name="LNONCOLLINEAR"> F  </i>
    <v name="MAGMOM">      1.00000000      1.00000000      1.00000000      1.00000000      1.00000000      1.00000000      1.00000000      1.00000000      1.00000000      1.00000000      1.00000000      1.00000000      1.00000000      1.00000000      1.00000000      1.00000000      1.00000000      1.00000000      1.00000000      1.00000000
      1.00000000      1.00000000      1.00000000      1.00000000      1.00000000      1.00000000      1.00000000      1.00000000      1.00000000      1.00000000      1.00000000      1.00000000      1.00000000      1.00000000      1.00000000      1.00000000      1.00000000      1.00000000      1.00000000      1.00000000
      1.00000000      1.00000000      1.00000000      1.00000000      1.00000000      1.00000000      1.00000000      1.00000000      1.00000000      1.00000000      1.00000000      1.00000000      1.00000000      1.00000000      1.00000000      1.00000000      1.00000000      1.00000000      1.00000000      1.00000000
      1.00000000      1.00000000      1.00000000      1.00000000      1.00000000      1.00000000      1.00000000      1.00000000      1.00000000      1.00000000      1.00000000      1.00000000      1.00000000      1.00000000      1.00000000      1.00000000      1.00000000      1.00000000      1.00000000      1.00000000
      1.00000000      1.00000000      1.00000000      1.00000000      1.00000000      1.00000000      1.00000000      1.00000000      1.00000000      1.00000000      1.00000000      1.00000000      1.00000000      1.00000000      1.00000000      1.00000000      1.00000000      1.00000000      1.00000000      1.00000000
      1.00000000      1.00000000      1.00000000      1.00000000      1.00000000      1.00000000      1.00000000      1.00000000      1.00000000      1.00000000      1.00000000      1.00000000      1.00000000      1.00000000      1.00000000      1.00000000      1.00000000      1.00000000      1.00000000      1.00000000
      1.00000000      1.00000000      1.00000000      1.00000000      1.00000000      1.00000000      1.00000000      1.00000000      1.00000000      1.00000000      1.00000000      1.00000000      1.00000000      1.00000000      1.00000000      1.00000000      1.00000000      1.00000000      1.00000000      1.00000000
      1.00000000      1.00000000      1.00000000      1.00000000      1.00000000      1.00000000      1.00000000      1.00000000      1.00000000      1.00000000      1.00000000      1.00000000      1.00000000      1.00000000      1.00000000      1.00000000      1.00000000      1.00000000      1.00000000      1.00000000
      1.00000000      1.00000000      1.00000000      1.00000000      1.00000000      1.00000000      1.00000000      1.00000000      1.00000000      1.00000000      1.00000000      1.00000000      1.00000000      1.00000000      1.00000000      1.00000000      1.00000000      1.00000000      1.00000000      1.00000000
      1.00000000      1.00000000      1.00000000      1.00000000      1.00000000      1.00000000      1.00000000      1.00000000      1.00000000      1.00000000      1.00000000      1.00000000      1.00000000      1.00000000      1.00000000      1.00000000      1.00000000      1.00000000      1.00000000      1.00000000
      1.00000000      1.00000000      1.00000000      1.00000000      1.00000000      1.00000000      1.00000000      1.00000000      1.00000000      1.00000000      1.00000000      1.00000000      1.00000000      1.00000000      1.00000000      1.00000000      1.00000000      1.00000000      1.00000000      1.00000000
      1.00000000      1.00000000      1.00000000      1.00000000      1.00000000      1.00000000      1.00000000      1.00000000      1.00000000      1.00000000      1.00000000      1.00000000      1.00000000      1.00000000      1.00000000      1.00000000      1.00000000      1.00000000      1.00000000      1.00000000
      1.00000000      1.00000000      1.00000000      1.00000000      1.00000000      1.00000000      1.00000000      1.00000000      1.00000000      1.00000000      1.00000000      1.00000000      1.00000000      1.00000000      1.00000000      1.00000000      1.00000000      1.00000000      1.00000000      1.00000000
      1.00000000      1.00000000      1.00000000      1.00000000      1.00000000      1.00000000      1.00000000      1.00000000      1.00000000      1.00000000</v>
    <i name="NUPDOWN">     -1.00000000</i>
    <i type="logical" name="LSORBIT"> F  </i>
    <v name="SAXIS">      0.00000000      0.00000000      1.00000000</v>
    <i type="logical" name="LSPIRAL"> F  </i>
    <v name="QSPIRAL">      0.00000000      0.00000000      0.00000000</v>
    <i type="logical" name="LZEROZ"> F  </i>
   </separator>
   <separator name="electronic exchange-correlation" >
    <i type="logical" name="LASPH"> F  </i>
    <i type="logical" name="LMETAGGA"> F  </i>
   </separator>
   <separator name="electronic convergence" >
    <i type="int" name="NELM">    60</i>
    <i type="int" name="NELMDL">    -5</i>
    <i type="int" name="NELMIN">     6</i>
    <i name="ENINI">    360.00000000</i>
    <separator name="electronic convergence detail" >
     <i type="logical" name="LDIAG"> T  </i>
     <i type="logical" name="LSUBROT"> F  </i>
     <i name="WEIMIN">      0.00100000</i>
     <i name="EBREAK">      0.00000000</i>
     <i name="DEPER">      0.30000000</i>
     <i type="int" name="NRMM">     4</i>
     <i name="TIME">      0.40000000</i>
    </separator>
   </separator>
   <separator name="electronic mixer" >
    <i name="AMIX">      0.40000000</i>
    <i name="BMIX">      1.00000000</i>
    <i name="AMIN">      0.10000000</i>
    <i name="AMIX_MAG">      1.60000000</i>
    <i name="BMIX_MAG">      1.00000000</i>
    <separator name="electronic mixer details" >
     <i type="int" name="IMIX">     4</i>
     <i type="logical" name="MIXFIRST"> F  </i>
     <i type="int" name="MAXMIX">   -45</i>
     <i name="WC">    100.00000000</i>
     <i type="int" name="INIMIX">     1</i>
     <i type="int" name="MIXPRE">     1</i>
     <i type="int" name="MREMOVE">     5</i>
    </separator>
   </separator>
   <separator name="electronic dipolcorrection" >
    <i type="logical" name="LDIPOL"> F  </i>
    <i type="logical" name="LMONO"> F  </i>
    <i type="int" name="IDIPOL">     0</i>
    <i name="EPSILON">      1.00000000</i>
    <v name="DIPOL">   -100.00000000   -100.00000000   -100.00000000</v>
    <i name="EFIELD">      0.00000000</i>
   </separator>
  </separator>
  <separator name="grids" >
   <i type="int" name="NGX">    70</i>
   <i type="int" name="NGY">    70</i>
   <i type="int" name="NGZ">    64</i>
   <i type="int" name="NGXF">   140</i>
   <i type="int" name="NGYF">   140</i>
   <i type="int" name="NGZF">   128</i>
   <i type="logical" name="ADDGRID"> F  </i>
  </separator>
  <separator name="ionic" >
   <i type="int" name="NSW">   150</i>
   <i type="int" name="IBRION">     2</i>
   <i type="int" name="MDALGO">     0</i>
   <i type="int" name="ISIF">     0</i>
   <i name="PSTRESS">      0.00000000</i>
   <i name="EDIFFG">      0.00005000</i>
   <i type="int" name="NFREE">     1</i>
   <i name="POTIM">      0.20000000</i>
   <i name="SMASS">     -3.00000000</i>
   <i name="SCALEE">      1.00000000</i>
  </separator>
  <separator name="ionic md" >
   <i name="TEBEG">      0.00010000</i>
   <i name="TEEND">      0.00010000</i>
   <i type="int" name="NBLOCK">     1</i>
   <i type="int" name="KBLOCK">   150</i>
   <i type="int" name="NPACO">   256</i>
   <i name="APACO">     16.00000000</i>
  </separator>
  <separator name="symmetry" >
   <i type="int" name="ISYM">     2</i>
   <i name="SYMPREC">      0.00001000</i>
  </separator>
  <separator name="dos" >
   <i type="int" name="LORBIT">     0</i>
   <v name="RWIGS">     -1.00000000     -1.00000000</v>
   <i type="int" name="NEDOS">   301</i>
   <i name="EMIN">     10.00000000</i>
   <i name="EMAX">    -10.00000000</i>
   <i name="EFERMI">      0.00000000</i>
  </separator>
  <separator name="writing" >
   <i type="int" name="NWRITE">     2</i>
   <i type="logical" name="LWAVE"> F  </i>
   <i type="logical" name="LDOWNSAMPLE"> F  </i>
   <i type="logical" name="LCHARG"> F  </i>
   <i type="logical" name="LPARD"> F  </i>
   <i type="logical" name="LVTOT"> F  </i>
   <i type="logical" name="LVHAR"> F  </i>
   <i type="logical" name="LELF"> F  </i>
   <i type="logical" name="LOPTICS"> F  </i>
   <v name="STM">      0.00000000      0.00000000      0.00000000      0.00000000      0.00000000      0.00000000      0.00000000</v>
  </separator>
  <separator name="performance" >
   <i type="int" name="NPAR">     1</i>
   <i type="int" name="NSIM">     4</i>
   <i type="int" name="NBLK">    -1</i>
   <i type="logical" name="LPLANE"> T  </i>
   <i type="logical" name="LSCALAPACK"> T  </i>
   <i type="logical" name="LSCAAWARE"> F  </i>
   <i type="logical" name="LSCALU"> F  </i>
   <i type="logical" name="LASYNC"> F  </i>
   <i type="logical" name="LORBITALREAL"> F  </i>
  </separator>
  <separator name="miscellaneous" >
   <i type="int" name="IDIOT">     3</i>
   <i type="int" name="PHON_NSTRUCT">    -1</i>
   <i type="logical" name="LMUSIC"> F  </i>
   <v name="POMASS">     26.98200000     16.00000000</v>
   <v name="DARWINR">      0.00000000      0.00000000</v>
   <v name="DARWINV">      1.00000000      1.00000000</v>
   <i type="logical" name="LCORR"> T  </i>
  </separator>
  <i type="logical" name="GGA_COMPAT"> T  </i>
  <i type="logical" name="LBERRY"> F  </i>
  <i type="int" name="ICORELEVEL">     0</i>
  <i type="logical" name="LDAU"> F  </i>
  <i type="int" name="I_CONSTRAINED_M">     0</i>
  <separator name="electronic exchange-correlation" >
   <i type="string" name="GGA">--</i>
   <i type="int" name="VOSKOWN">     0</i>
   <i type="logical" name="LHFCALC"> F  </i>
   <i type="string" name="PRECFOCK"></i>
   <i type="logical" name="LSYMGRAD"> F  </i>
   <i type="logical" name="LHFONE"> F  </i>
   <i type="logical" name="LRHFCALC"> F  </i>
   <i type="logical" name="LTHOMAS"> F  </i>
   <i type="logical" name="LMODELHF"> F  </i>
   <i type="logical" name="LFOCKACE"> F  </i>
   <i name="ENCUT4O">     -1.00000000</i>
   <i type="int" name="EXXOEP">     0</i>
   <i type="int" name="FOURORBIT">     0</i>
   <i name="AEXX">      0.00000000</i>
   <i name="HFALPHA">      0.00000000</i>
   <i name="MCALPHA">      0.00000000</i>
   <i name="ALDAX">      1.00000000</i>
   <i name="AGGAX">      1.00000000</i>
   <i name="ALDAC">      1.00000000</i>
   <i name="AGGAC">      1.00000000</i>
   <i type="int" name="NKREDX">     1</i>
   <i type="int" name="NKREDY">     1</i>
   <i type="int" name="NKREDZ">     1</i>
   <i type="logical" name="SHIFTRED"> F  </i>
   <i type="logical" name="ODDONLY"> F  </i>
   <i type="logical" name="EVENONLY"> F  </i>
   <i type="int" name="LMAXFOCK">     0</i>
   <i type="int" name="NMAXFOCKAE">     0</i>
   <i type="logical" name="LFOCKAEDFT"> F  </i>
   <i name="HFSCREEN">      0.00000000</i>
   <i name="HFSCREENC">      0.00000000</i>
   <i type="int" name="NBANDSGWLOW">     0</i>
  </separator>
  <separator name="vdW DFT" >
   <i type="logical" name="LUSE_VDW"> F  </i>
   <i name="Zab_VDW">     -0.84910000</i>
   <i name="PARAM1">      0.12340000</i>
   <i name="PARAM2">      1.00000000</i>
   <i name="PARAM3">      0.00000000</i>
  </separator>
  <separator name="model GW" >
   <i type="int" name="MODEL_GW">     0</i>
   <i name="MODEL_EPS0">      5.24520249</i>
   <i name="MODEL_ALPHA">      1.00000000</i>
  </separator>
  <separator name="linear response parameters" >
   <i type="logical" name="LEPSILON"> F  </i>
   <i type="logical" name="LRPA"> F  </i>
   <i type="logical" name="LNABLA"> F  </i>
   <i type="logical" name="LVEL"> F  </i>
   <i type="int" name="KINTER">     0</i>
   <i name="CSHIFT">      0.10000000</i>
   <i name="OMEGAMAX">     -1.00000000</i>
   <i name="DEG_THRESHOLD">      0.00200000</i>
   <i name="RTIME">     -0.10000000</i>
   <i name="WPLASMAI">      0.00000000</i>
   <v name="DFIELD">      0.00000000      0.00000000      0.00000000</v>
   <v name="WPLASMA">      0.00000000      0.00000000      0.00000000      0.00000000      0.00000000      0.00000000      0.00000000      0.00000000      0.00000000</v>
  </separator>
  <separator name="orbital magnetization" >
   <i type="logical" name="NUCIND"> F  </i>
   <v name="MAGPOS">      0.00000000      0.00000000      0.00000000</v>
   <i type="logical" name="LNICSALL"> T  </i>
   <i type="logical" name="ORBITALMAG"> F  </i>
   <i type="logical" name="LMAGBLOCH"> F  </i>
   <i type="logical" name="LCHIMAG"> F  </i>
   <i type="logical" name="LGAUGE"> T  </i>
   <i type="int" name="MAGATOM">     0</i>
   <v name="MAGDIPOL">      0.00000000      0.00000000      0.00000000</v>
   <v name="AVECCONST">      0.00000000      0.00000000      0.00000000</v>
  </separator>
  <separator name="response functions" >
   <i type="logical" name="LFINITE_TEMPERATURE"> F  </i>
   <i type="logical" name="LADDER"> F  </i>
   <i type="logical" name="LRPAFORCE"> F  </i>
   <i type="logical" name="LFXC"> F  </i>
   <i type="logical" name="LHARTREE"> T  </i>
   <i type="int" name="IBSE">     0</i>
   <v type="int" name="KPOINT">    -1     0     0     0</v>
   <i type="logical" name="LTCTC"> F  </i>
   <i type="logical" name="LTCTE"> F  </i>
   <i type="logical" name="LTETE"> F  </i>
   <i type="logical" name="LTRIPLET"> F  </i>
   <i type="logical" name="LFXCEPS"> F  </i>
   <i type="logical" name="LFXHEG"> F  </i>
   <i type="int" name="NATURALO">     2</i>
   <i type="logical" name="LHOLEGF"> F  </i>
   <i type="logical" name="L2ORDER"> F  </i>
   <i type="logical" name="LDMP1"> F  </i>
   <i type="logical" name="LMP2LT"> F  </i>
   <i type="logical" name="LSMP2LT"> F  </i>
   <i type="logical" name="LGWLF"> F  </i>
   <i name="ENCUTGW">     -2.00000000</i>
   <i name="ENCUTGWSOFT">     -2.00000000</i>
   <i name="ENCUTLF">     -1.00000000</i>
   <i type="logical" name="LESF_SPLINES"> F  </i>
   <i type="int" name="LMAXMP2">    -1</i>
   <i name="SCISSOR">      0.00000000</i>
   <i type="int" name="NOMEGA">     0</i>
   <i type="int" name="NOMEGAR">     0</i>
   <i type="int" name="NBANDSGW">    -1</i>
   <i type="int" name="NBANDSO">    -1</i>
   <i type="int" name="NBANDSV">    -1</i>
   <i type="int" name="NELM">     1</i>
   <i type="int" name="NELMHF">     1</i>
   <i type="int" name="DIM">     3</i>
   <i type="int" name="IESPILON">     4</i>
   <i type="int" name="ANTIRES">     0</i>
   <i name="OMEGAMAX">    -30.00000000</i>
   <i name="OMEGAMIN">    -30.00000000</i>
   <i name="OMEGATL">   -200.00000000</i>
   <i type="int" name="OMEGAGRID">     0</i>
   <i name="CSHIFT">     -0.10000000</i>
   <i type="logical" name="LSELFENERGY"> F  </i>
   <i type="logical" name="LSPECTRAL"> F  </i>
   <i type="logical" name="LSPECTRALGW"> F  </i>
   <i type="logical" name="LSINGLES"> F  </i>
   <i type="logical" name="LFERMIGW"> F  </i>
   <i type="logical" name="ODDONLYGW"> F  </i>
   <i type="logical" name="EVENONLYGW"> F  </i>
   <i type="int" name="NKREDLFX">     1</i>
   <i type="int" name="NKREDLFY">     1</i>
   <i type="int" name="NKREDLFZ">     1</i>
   <i type="int" name="MAXMEM">  2800</i>
   <i type="int" name="TELESCOPE">     0</i>
   <i type="int" name="NTAUPAR">    -1</i>
   <i type="int" name="NOMEGAPAR">    -1</i>
   <i name="DAMP_NEWTON">      0.80000001</i>
   <i name="LAMBDA">      1.00000000</i>
  </separator>
  <separator name="External order field" >
   <i name="OFIELD_KAPPA">      0.00000000</i>
   <v name="OFIELD_K">      0.00000000      0.00000000      0.00000000</v>
   <i name="OFIELD_Q6_NEAR">      0.00000000</i>
   <i name="OFIELD_Q6_FAR">      0.00000000</i>
   <i name="OFIELD_A">      0.00000000</i>
  </separator>
 </parameters>
 <atominfo>
  <atoms>     270 </atoms>
  <types>       2 </types>
  <array name="atoms" >
   <dimension dim="1">ion</dimension>
   <field type="string">element</field>
   <field type="int">atomtype</field>
   <set>
    <rc><c>Al</c><c>   1</c></rc>
    <rc><c>Al</c><c>   1</c></rc>
    <rc><c>Al</c><c>   1</c></rc>
    <rc><c>Al</c><c>   1</c></rc>
    <rc><c>Al</c><c>   1</c></rc>
    <rc><c>Al</c><c>   1</c></rc>
    <rc><c>Al</c><c>   1</c></rc>
    <rc><c>Al</c><c>   1</c></rc>
    <rc><c>Al</c><c>   1</c></rc>
    <rc><c>Al</c><c>   1</c></rc>
    <rc><c>Al</c><c>   1</c></rc>
    <rc><c>Al</c><c>   1</c></rc>
    <rc><c>Al</c><c>   1</c></rc>
    <rc><c>Al</c><c>   1</c></rc>
    <rc><c>Al</c><c>   1</c></rc>
    <rc><c>Al</c><c>   1</c></rc>
    <rc><c>Al</c><c>   1</c></rc>
    <rc><c>Al</c><c>   1</c></rc>
    <rc><c>Al</c><c>   1</c></rc>
    <rc><c>Al</c><c>   1</c></rc>
    <rc><c>Al</c><c>   1</c></rc>
    <rc><c>Al</c><c>   1</c></rc>
    <rc><c>Al</c><c>   1</c></rc>
    <rc><c>Al</c><c>   1</c></rc>
    <rc><c>Al</c><c>   1</c></rc>
    <rc><c>Al</c><c>   1</c></rc>
    <rc><c>Al</c><c>   1</c></rc>
    <rc><c>Al</c><c>   1</c></rc>
    <rc><c>Al</c><c>   1</c></rc>
    <rc><c>Al</c><c>   1</c></rc>
    <rc><c>Al</c><c>   1</c></rc>
    <rc><c>Al</c><c>   1</c></rc>
    <rc><c>Al</c><c>   1</c></rc>
    <rc><c>Al</c><c>   1</c></rc>
    <rc><c>Al</c><c>   1</c></rc>
    <rc><c>Al</c><c>   1</c></rc>
    <rc><c>Al</c><c>   1</c></rc>
    <rc><c>Al</c><c>   1</c></rc>
    <rc><c>Al</c><c>   1</c></rc>
    <rc><c>Al</c><c>   1</c></rc>
    <rc><c>Al</c><c>   1</c></rc>
    <rc><c>Al</c><c>   1</c></rc>
    <rc><c>Al</c><c>   1</c></rc>
    <rc><c>Al</c><c>   1</c></rc>
    <rc><c>Al</c><c>   1</c></rc>
    <rc><c>Al</c><c>   1</c></rc>
    <rc><c>Al</c><c>   1</c></rc>
    <rc><c>Al</c><c>   1</c></rc>
    <rc><c>Al</c><c>   1</c></rc>
    <rc><c>Al</c><c>   1</c></rc>
    <rc><c>Al</c><c>   1</c></rc>
    <rc><c>Al</c><c>   1</c></rc>
    <rc><c>Al</c><c>   1</c></rc>
    <rc><c>Al</c><c>   1</c></rc>
    <rc><c>Al</c><c>   1</c></rc>
    <rc><c>Al</c><c>   1</c></rc>
    <rc><c>Al</c><c>   1</c></rc>
    <rc><c>Al</c><c>   1</c></rc>
    <rc><c>Al</c><c>   1</c></rc>
    <rc><c>Al</c><c>   1</c></rc>
    <rc><c>Al</c><c>   1</c></rc>
    <rc><c>Al</c><c>   1</c></rc>
    <rc><c>Al</c><c>   1</c></rc>
    <rc><c>Al</c><c>   1</c></rc>
    <rc><c>Al</c><c>   1</c></rc>
    <rc><c>Al</c><c>   1</c></rc>
    <rc><c>Al</c><c>   1</c></rc>
    <rc><c>Al</c><c>   1</c></rc>
    <rc><c>Al</c><c>   1</c></rc>
    <rc><c>Al</c><c>   1</c></rc>
    <rc><c>Al</c><c>   1</c></rc>
    <rc><c>Al</c><c>   1</c></rc>
    <rc><c>Al</c><c>   1</c></rc>
    <rc><c>Al</c><c>   1</c></rc>
    <rc><c>Al</c><c>   1</c></rc>
    <rc><c>Al</c><c>   1</c></rc>
    <rc><c>Al</c><c>   1</c></rc>
    <rc><c>Al</c><c>   1</c></rc>
    <rc><c>Al</c><c>   1</c></rc>
    <rc><c>Al</c><c>   1</c></rc>
    <rc><c>Al</c><c>   1</c></rc>
    <rc><c>Al</c><c>   1</c></rc>
    <rc><c>Al</c><c>   1</c></rc>
    <rc><c>Al</c><c>   1</c></rc>
    <rc><c>Al</c><c>   1</c></rc>
    <rc><c>Al</c><c>   1</c></rc>
    <rc><c>Al</c><c>   1</c></rc>
    <rc><c>Al</c><c>   1</c></rc>
    <rc><c>Al</c><c>   1</c></rc>
    <rc><c>Al</c><c>   1</c></rc>
    <rc><c>Al</c><c>   1</c></rc>
    <rc><c>Al</c><c>   1</c></rc>
    <rc><c>Al</c><c>   1</c></rc>
    <rc><c>Al</c><c>   1</c></rc>
    <rc><c>Al</c><c>   1</c></rc>
    <rc><c>Al</c><c>   1</c></rc>
    <rc><c>Al</c><c>   1</c></rc>
    <rc><c>Al</c><c>   1</c></rc>
    <rc><c>Al</c><c>   1</c></rc>
    <rc><c>Al</c><c>   1</c></rc>
    <rc><c>Al</c><c>   1</c></rc>
    <rc><c>Al</c><c>   1</c></rc>
    <rc><c>Al</c><c>   1</c></rc>
    <rc><c>Al</c><c>   1</c></rc>
    <rc><c>Al</c><c>   1</c></rc>
    <rc><c>Al</c><c>   1</c></rc>
    <rc><c>Al</c><c>   1</c></rc>
    <rc><c>Al</c><c>   1</c></rc>
    <rc><c>O </c><c>   2</c></rc>
    <rc><c>O </c><c>   2</c></rc>
    <rc><c>O </c><c>   2</c></rc>
    <rc><c>O </c><c>   2</c></rc>
    <rc><c>O </c><c>   2</c></rc>
    <rc><c>O </c><c>   2</c></rc>
    <rc><c>O </c><c>   2</c></rc>
    <rc><c>O </c><c>   2</c></rc>
    <rc><c>O </c><c>   2</c></rc>
    <rc><c>O </c><c>   2</c></rc>
    <rc><c>O </c><c>   2</c></rc>
    <rc><c>O </c><c>   2</c></rc>
    <rc><c>O </c><c>   2</c></rc>
    <rc><c>O </c><c>   2</c></rc>
    <rc><c>O </c><c>   2</c></rc>
    <rc><c>O </c><c>   2</c></rc>
    <rc><c>O </c><c>   2</c></rc>
    <rc><c>O </c><c>   2</c></rc>
    <rc><c>O </c><c>   2</c></rc>
    <rc><c>O </c><c>   2</c></rc>
    <rc><c>O </c><c>   2</c></rc>
    <rc><c>O </c><c>   2</c></rc>
    <rc><c>O </c><c>   2</c></rc>
    <rc><c>O </c><c>   2</c></rc>
    <rc><c>O </c><c>   2</c></rc>
    <rc><c>O </c><c>   2</c></rc>
    <rc><c>O </c><c>   2</c></rc>
    <rc><c>O </c><c>   2</c></rc>
    <rc><c>O </c><c>   2</c></rc>
    <rc><c>O </c><c>   2</c></rc>
    <rc><c>O </c><c>   2</c></rc>
    <rc><c>O </c><c>   2</c></rc>
    <rc><c>O </c><c>   2</c></rc>
    <rc><c>O </c><c>   2</c></rc>
    <rc><c>O </c><c>   2</c></rc>
    <rc><c>O </c><c>   2</c></rc>
    <rc><c>O </c><c>   2</c></rc>
    <rc><c>O </c><c>   2</c></rc>
    <rc><c>O </c><c>   2</c></rc>
    <rc><c>O </c><c>   2</c></rc>
    <rc><c>O </c><c>   2</c></rc>
    <rc><c>O </c><c>   2</c></rc>
    <rc><c>O </c><c>   2</c></rc>
    <rc><c>O </c><c>   2</c></rc>
    <rc><c>O </c><c>   2</c></rc>
    <rc><c>O </c><c>   2</c></rc>
    <rc><c>O </c><c>   2</c></rc>
    <rc><c>O </c><c>   2</c></rc>
    <rc><c>O </c><c>   2</c></rc>
    <rc><c>O </c><c>   2</c></rc>
    <rc><c>O </c><c>   2</c></rc>
    <rc><c>O </c><c>   2</c></rc>
    <rc><c>O </c><c>   2</c></rc>
    <rc><c>O </c><c>   2</c></rc>
    <rc><c>O </c><c>   2</c></rc>
    <rc><c>O </c><c>   2</c></rc>
    <rc><c>O </c><c>   2</c></rc>
    <rc><c>O </c><c>   2</c></rc>
    <rc><c>O </c><c>   2</c></rc>
    <rc><c>O </c><c>   2</c></rc>
    <rc><c>O </c><c>   2</c></rc>
    <rc><c>O </c><c>   2</c></rc>
    <rc><c>O </c><c>   2</c></rc>
    <rc><c>O </c><c>   2</c></rc>
    <rc><c>O </c><c>   2</c></rc>
    <rc><c>O </c><c>   2</c></rc>
    <rc><c>O </c><c>   2</c></rc>
    <rc><c>O </c><c>   2</c></rc>
    <rc><c>O </c><c>   2</c></rc>
    <rc><c>O </c><c>   2</c></rc>
    <rc><c>O </c><c>   2</c></rc>
    <rc><c>O </c><c>   2</c></rc>
    <rc><c>O </c><c>   2</c></rc>
    <rc><c>O </c><c>   2</c></rc>
    <rc><c>O </c><c>   2</c></rc>
    <rc><c>O </c><c>   2</c></rc>
    <rc><c>O </c><c>   2</c></rc>
    <rc><c>O </c><c>   2</c></rc>
    <rc><c>O </c><c>   2</c></rc>
    <rc><c>O </c><c>   2</c></rc>
    <rc><c>O </c><c>   2</c></rc>
    <rc><c>O </c><c>   2</c></rc>
    <rc><c>O </c><c>   2</c></rc>
    <rc><c>O </c><c>   2</c></rc>
    <rc><c>O </c><c>   2</c></rc>
    <rc><c>O </c><c>   2</c></rc>
    <rc><c>O </c><c>   2</c></rc>
    <rc><c>O </c><c>   2</c></rc>
    <rc><c>O </c><c>   2</c></rc>
    <rc><c>O </c><c>   2</c></rc>
    <rc><c>O </c><c>   2</c></rc>
    <rc><c>O </c><c>   2</c></rc>
    <rc><c>O </c><c>   2</c></rc>
    <rc><c>O </c><c>   2</c></rc>
    <rc><c>O </c><c>   2</c></rc>
    <rc><c>O </c><c>   2</c></rc>
    <rc><c>O </c><c>   2</c></rc>
    <rc><c>O </c><c>   2</c></rc>
    <rc><c>O </c><c>   2</c></rc>
    <rc><c>O </c><c>   2</c></rc>
    <rc><c>O </c><c>   2</c></rc>
    <rc><c>O </c><c>   2</c></rc>
    <rc><c>O </c><c>   2</c></rc>
    <rc><c>O </c><c>   2</c></rc>
    <rc><c>O </c><c>   2</c></rc>
    <rc><c>O </c><c>   2</c></rc>
    <rc><c>O </c><c>   2</c></rc>
    <rc><c>O </c><c>   2</c></rc>
    <rc><c>O </c><c>   2</c></rc>
    <rc><c>O </c><c>   2</c></rc>
    <rc><c>O </c><c>   2</c></rc>
    <rc><c>O </c><c>   2</c></rc>
    <rc><c>O </c><c>   2</c></rc>
    <rc><c>O </c><c>   2</c></rc>
    <rc><c>O </c><c>   2</c></rc>
    <rc><c>O </c><c>   2</c></rc>
    <rc><c>O </c><c>   2</c></rc>
    <rc><c>O </c><c>   2</c></rc>
    <rc><c>O </c><c>   2</c></rc>
    <rc><c>O </c><c>   2</c></rc>
    <rc><c>O </c><c>   2</c></rc>
    <rc><c>O </c><c>   2</c></rc>
    <rc><c>O </c><c>   2</c></rc>
    <rc><c>O </c><c>   2</c></rc>
    <rc><c>O </c><c>   2</c></rc>
    <rc><c>O </c><c>   2</c></rc>
    <rc><c>O </c><c>   2</c></rc>
    <rc><c>O </c><c>   2</c></rc>
    <rc><c>O </c><c>   2</c></rc>
    <rc><c>O </c><c>   2</c></rc>
    <rc><c>O </c><c>   2</c></rc>
    <rc><c>O </c><c>   2</c></rc>
    <rc><c>O </c><c>   2</c></rc>
    <rc><c>O </c><c>   2</c></rc>
    <rc><c>O </c><c>   2</c></rc>
    <rc><c>O </c><c>   2</c></rc>
    <rc><c>O </c><c>   2</c></rc>
    <rc><c>O </c><c>   2</c></rc>
    <rc><c>O </c><c>   2</c></rc>
    <rc><c>O </c><c>   2</c></rc>
    <rc><c>O </c><c>   2</c></rc>
    <rc><c>O </c><c>   2</c></rc>
    <rc><c>O </c><c>   2</c></rc>
    <rc><c>O </c><c>   2</c></rc>
    <rc><c>O </c><c>   2</c></rc>
    <rc><c>O </c><c>   2</c></rc>
    <rc><c>O </c><c>   2</c></rc>
    <rc><c>O </c><c>   2</c></rc>
    <rc><c>O </c><c>   2</c></rc>
    <rc><c>O </c><c>   2</c></rc>
    <rc><c>O </c><c>   2</c></rc>
    <rc><c>O </c><c>   2</c></rc>
    <rc><c>O </c><c>   2</c></rc>
    <rc><c>O </c><c>   2</c></rc>
    <rc><c>O </c><c>   2</c></rc>
    <rc><c>O </c><c>   2</c></rc>
    <rc><c>O </c><c>   2</c></rc>
    <rc><c>O </c><c>   2</c></rc>
    <rc><c>O </c><c>   2</c></rc>
    <rc><c>O </c><c>   2</c></rc>
    <rc><c>O </c><c>   2</c></rc>
    <rc><c>O </c><c>   2</c></rc>
   </set>
  </array>
  <array name="atomtypes" >
   <dimension dim="1">type</dimension>
   <field type="int">atomspertype</field>
   <field type="string">element</field>
   <field>mass</field>
   <field>valence</field>
   <field type="string">pseudopotential</field>
   <set>
    <rc><c> 108</c><c>Al</c><c>     26.98200000</c><c>      3.00000000</c><c>  PAW Al_GW 19Mar2012                   </c></rc>
    <rc><c> 162</c><c>O </c><c>     16.00000000</c><c>      6.00000000</c><c>  PAW O_GW 19Mar2012                    </c></rc>
   </set>
  </array>
 </atominfo>
 <structure name="initialpos" >
  <crystal>
   <varray name="basis" >
    <v>      14.41508400       0.00000000       0.00000000 </v>
    <v>      -7.20754200      12.48382800       0.00000000 </v>
    <v>       0.00000000       0.00000000      13.11625400 </v>
   </varray>
   <i name="volume">   2360.34111887 </i>
   <varray name="rec_basis" >
    <v>       0.06937178       0.04005182      -0.00000000 </v>
    <v>       0.00000000       0.08010363       0.00000000 </v>
    <v>       0.00000000      -0.00000000       0.07624128 </v>
   </varray>
  </crystal>
  <varray name="positions" >
   <v>       0.00000000       0.00000000       0.14790400 </v>
   <v>       0.11111100       0.22222233       0.01876300 </v>
   <v>       0.11111100       0.22222233       0.31457100 </v>
   <v>       0.22222233       0.11111100       0.18542900 </v>
   <v>       0.22222233       0.11111100       0.48123700 </v>
   <v>       0.00000000       0.00000000       0.35209600 </v>
   <v>       0.00000000       0.00000000       0.64790400 </v>
   <v>       0.11111100       0.22222233       0.51876300 </v>
   <v>       0.11111100       0.22222233       0.81457100 </v>
   <v>       0.22222233       0.11111100       0.68542900 </v>
   <v>       0.22222233       0.11111100       0.98123700 </v>
   <v>       0.00000000       0.00000000       0.85209600 </v>
   <v>       0.00000000       0.33333333       0.14790400 </v>
   <v>       0.11111100       0.55555567       0.01876300 </v>
   <v>       0.11111100       0.55555567       0.31457100 </v>
   <v>       0.22222233       0.44444433       0.18542900 </v>
   <v>       0.22222233       0.44444433       0.48123700 </v>
   <v>       0.00000000       0.33333333       0.35209600 </v>
   <v>       0.00000000       0.33333333       0.64790400 </v>
   <v>       0.11111100       0.55555567       0.51876300 </v>
   <v>       0.11111100       0.55555567       0.81457100 </v>
   <v>       0.22222233       0.44444433       0.68542900 </v>
   <v>       0.22222233       0.44444433       0.98123700 </v>
   <v>       0.00000000       0.33333333       0.85209600 </v>
   <v>       0.00000000       0.66666667       0.14790400 </v>
   <v>       0.11111100       0.88888900       0.01876300 </v>
   <v>       0.11111100       0.88888900       0.31457100 </v>
   <v>       0.22222233       0.77777767       0.18542900 </v>
   <v>       0.22222233       0.77777767       0.48123700 </v>
   <v>       0.00000000       0.66666667       0.35209600 </v>
   <v>       0.00000000       0.66666667       0.64790400 </v>
   <v>       0.11111100       0.88888900       0.51876300 </v>
   <v>       0.11111100       0.88888900       0.81457100 </v>
   <v>       0.22222233       0.77777767       0.68542900 </v>
   <v>       0.22222233       0.77777767       0.98123700 </v>
   <v>       0.00000000       0.66666667       0.85209600 </v>
   <v>       0.33333333       0.00000000       0.14790400 </v>
   <v>       0.44444433       0.22222233       0.01876300 </v>
   <v>       0.44444433       0.22222233       0.31457100 </v>
   <v>       0.55555567       0.11111100       0.18542900 </v>
   <v>       0.55555567       0.11111100       0.48123700 </v>
   <v>       0.33333333       0.00000000       0.35209600 </v>
   <v>       0.33333333       0.00000000       0.64790400 </v>
   <v>       0.44444433       0.22222233       0.51876300 </v>
   <v>       0.44444433       0.22222233       0.81457100 </v>
   <v>       0.55555567       0.11111100       0.68542900 </v>
   <v>       0.55555567       0.11111100       0.98123700 </v>
   <v>       0.33333333       0.00000000       0.85209600 </v>
   <v>       0.33333333       0.33333333       0.14790400 </v>
   <v>       0.44444433       0.55555567       0.01876300 </v>
   <v>       0.44444433       0.55555567       0.31457100 </v>
   <v>       0.55555567       0.44444433       0.18542900 </v>
   <v>       0.55555567       0.44444433       0.48123700 </v>
   <v>       0.33333333       0.33333333       0.35209600 </v>
   <v>       0.33333333       0.33333333       0.64790400 </v>
   <v>       0.44444433       0.55555567       0.51876300 </v>
   <v>       0.44444433       0.55555567       0.81457100 </v>
   <v>       0.55555567       0.44444433       0.68542900 </v>
   <v>       0.55555567       0.44444433       0.98123700 </v>
   <v>       0.33333333       0.33333333       0.85209600 </v>
   <v>       0.33333333       0.66666667       0.14790400 </v>
   <v>       0.44444433       0.88888900       0.01876300 </v>
   <v>       0.44444433       0.88888900       0.31457100 </v>
   <v>       0.55555567       0.77777767       0.18542900 </v>
   <v>       0.55555567       0.77777767       0.48123700 </v>
   <v>       0.33333333       0.66666667       0.35209600 </v>
   <v>       0.33333333       0.66666667       0.64790400 </v>
   <v>       0.44444433       0.88888900       0.51876300 </v>
   <v>       0.44444433       0.88888900       0.81457100 </v>
   <v>       0.55555567       0.77777767       0.68542900 </v>
   <v>       0.55555567       0.77777767       0.98123700 </v>
   <v>       0.33333333       0.66666667       0.85209600 </v>
   <v>       0.66666667       0.00000000       0.14790400 </v>
   <v>       0.77777767       0.22222233       0.01876300 </v>
   <v>       0.77777767       0.22222233       0.31457100 </v>
   <v>       0.88888900       0.11111100       0.18542900 </v>
   <v>       0.88888900       0.11111100       0.48123700 </v>
   <v>       0.66666667       0.00000000       0.35209600 </v>
   <v>       0.66666667       0.00000000       0.64790400 </v>
   <v>       0.77777767       0.22222233       0.51876300 </v>
   <v>       0.77777767       0.22222233       0.81457100 </v>
   <v>       0.88888900       0.11111100       0.68542900 </v>
   <v>       0.88888900       0.11111100       0.98123700 </v>
   <v>       0.66666667       0.00000000       0.85209600 </v>
   <v>       0.66666667       0.33333333       0.14790400 </v>
   <v>       0.77777767       0.55555567       0.01876300 </v>
   <v>       0.77777767       0.55555567       0.31457100 </v>
   <v>       0.88888900       0.44444433       0.18542900 </v>
   <v>       0.88888900       0.44444433       0.48123700 </v>
   <v>       0.66666667       0.33333333       0.35209600 </v>
   <v>       0.66666667       0.33333333       0.64790400 </v>
   <v>       0.77777767       0.55555567       0.51876300 </v>
   <v>       0.77777767       0.55555567       0.81457100 </v>
   <v>       0.88888900       0.44444433       0.68542900 </v>
   <v>       0.88888900       0.44444433       0.98123700 </v>
   <v>       0.66666667       0.33333333       0.85209600 </v>
   <v>       0.66666667       0.66666667       0.14790400 </v>
   <v>       0.77777767       0.88888900       0.01876300 </v>
   <v>       0.77777767       0.88888900       0.31457100 </v>
   <v>       0.88888900       0.77777767       0.18542900 </v>
   <v>       0.88888900       0.77777767       0.48123700 </v>
   <v>       0.66666667       0.66666667       0.35209600 </v>
   <v>       0.66666667       0.66666667       0.64790400 </v>
   <v>       0.77777767       0.88888900       0.51876300 </v>
   <v>       0.77777767       0.88888900       0.81457100 </v>
   <v>       0.88888900       0.77777767       0.68542900 </v>
   <v>       0.88888900       0.77777767       0.98123700 </v>
   <v>       0.66666667       0.66666667       0.85209600 </v>
   <v>       0.10204867       0.00000000       0.25000000 </v>
   <v>       0.22222233       0.00906233       0.08333300 </v>
   <v>       0.00000000       0.10204867       0.25000000 </v>
   <v>       0.23128467       0.23128467       0.25000000 </v>
   <v>       0.32427100       0.21315967       0.08333300 </v>
   <v>       0.12017367       0.11111100       0.08333300 </v>
   <v>       0.32427100       0.11111100       0.58333300 </v>
   <v>       0.11111100       0.12017367       0.41666700 </v>
   <v>       0.22222233       0.21315967       0.58333300 </v>
   <v>       0.12017367       0.00906233       0.58333300 </v>
   <v>       0.21315967       0.32427100       0.41666700 </v>
   <v>       0.00906233       0.22222233       0.41666700 </v>
   <v>       0.21315967       0.22222233       0.91666700 </v>
   <v>       0.00000000       0.23128467       0.75000000 </v>
   <v>       0.11111100       0.32427100       0.91666700 </v>
   <v>       0.00906233       0.12017367       0.91666700 </v>
   <v>       0.10204867       0.10204867       0.75000000 </v>
   <v>       0.23128467       0.00000000       0.75000000 </v>
   <v>       0.10204867       0.33333333       0.25000000 </v>
   <v>       0.22222233       0.34239567       0.08333300 </v>
   <v>       0.00000000       0.43538200       0.25000000 </v>
   <v>       0.23128467       0.56461800       0.25000000 </v>
   <v>       0.32427100       0.54649300       0.08333300 </v>
   <v>       0.12017367       0.44444433       0.08333300 </v>
   <v>       0.32427100       0.44444433       0.58333300 </v>
   <v>       0.11111100       0.45350700       0.41666700 </v>
   <v>       0.22222233       0.54649300       0.58333300 </v>
   <v>       0.12017367       0.34239567       0.58333300 </v>
   <v>       0.21315967       0.65760433       0.41666700 </v>
   <v>       0.00906233       0.55555567       0.41666700 </v>
   <v>       0.21315967       0.55555567       0.91666700 </v>
   <v>       0.00000000       0.56461800       0.75000000 </v>
   <v>       0.11111100       0.65760433       0.91666700 </v>
   <v>       0.00906233       0.45350700       0.91666700 </v>
   <v>       0.10204867       0.43538200       0.75000000 </v>
   <v>       0.23128467       0.33333333       0.75000000 </v>
   <v>       0.10204867       0.66666667       0.25000000 </v>
   <v>       0.22222233       0.67572900       0.08333300 </v>
   <v>       0.00000000       0.76871533       0.25000000 </v>
   <v>       0.23128467       0.89795133       0.25000000 </v>
   <v>       0.32427100       0.87982633       0.08333300 </v>
   <v>       0.12017367       0.77777767       0.08333300 </v>
   <v>       0.32427100       0.77777767       0.58333300 </v>
   <v>       0.11111100       0.78684033       0.41666700 </v>
   <v>       0.22222233       0.87982633       0.58333300 </v>
   <v>       0.12017367       0.67572900       0.58333300 </v>
   <v>       0.21315967       0.99093767       0.41666700 </v>
   <v>       0.00906233       0.88888900       0.41666700 </v>
   <v>       0.21315967       0.88888900       0.91666700 </v>
   <v>       0.00000000       0.89795133       0.75000000 </v>
   <v>       0.11111100       0.99093767       0.91666700 </v>
   <v>       0.00906233       0.78684033       0.91666700 </v>
   <v>       0.10204867       0.76871533       0.75000000 </v>
   <v>       0.23128467       0.66666667       0.75000000 </v>
   <v>       0.43538200       0.00000000       0.25000000 </v>
   <v>       0.55555567       0.00906233       0.08333300 </v>
   <v>       0.33333333       0.10204867       0.25000000 </v>
   <v>       0.56461800       0.23128467       0.25000000 </v>
   <v>       0.65760433       0.21315967       0.08333300 </v>
   <v>       0.45350700       0.11111100       0.08333300 </v>
   <v>       0.65760433       0.11111100       0.58333300 </v>
   <v>       0.44444433       0.12017367       0.41666700 </v>
   <v>       0.55555567       0.21315967       0.58333300 </v>
   <v>       0.45350700       0.00906233       0.58333300 </v>
   <v>       0.54649300       0.32427100       0.41666700 </v>
   <v>       0.34239567       0.22222233       0.41666700 </v>
   <v>       0.54649300       0.22222233       0.91666700 </v>
   <v>       0.33333333       0.23128467       0.75000000 </v>
   <v>       0.44444433       0.32427100       0.91666700 </v>
   <v>       0.34239567       0.12017367       0.91666700 </v>
   <v>       0.43538200       0.10204867       0.75000000 </v>
   <v>       0.56461800       0.00000000       0.75000000 </v>
   <v>       0.43538200       0.33333333       0.25000000 </v>
   <v>       0.55555567       0.34239567       0.08333300 </v>
   <v>       0.33333333       0.43538200       0.25000000 </v>
   <v>       0.56461800       0.56461800       0.25000000 </v>
   <v>       0.65760433       0.54649300       0.08333300 </v>
   <v>       0.45350700       0.44444433       0.08333300 </v>
   <v>       0.65760433       0.44444433       0.58333300 </v>
   <v>       0.44444433       0.45350700       0.41666700 </v>
   <v>       0.55555567       0.54649300       0.58333300 </v>
   <v>       0.45350700       0.34239567       0.58333300 </v>
   <v>       0.54649300       0.65760433       0.41666700 </v>
   <v>       0.34239567       0.55555567       0.41666700 </v>
   <v>       0.54649300       0.55555567       0.91666700 </v>
   <v>       0.33333333       0.56461800       0.75000000 </v>
   <v>       0.44444433       0.65760433       0.91666700 </v>
   <v>       0.34239567       0.45350700       0.91666700 </v>
   <v>       0.43538200       0.43538200       0.75000000 </v>
   <v>       0.56461800       0.33333333       0.75000000 </v>
   <v>       0.43538200       0.66666667       0.25000000 </v>
   <v>       0.55555567       0.67572900       0.08333300 </v>
   <v>       0.33333333       0.76871533       0.25000000 </v>
   <v>       0.56461800       0.89795133       0.25000000 </v>
   <v>       0.65760433       0.87982633       0.08333300 </v>
   <v>       0.45350700       0.77777767       0.08333300 </v>
   <v>       0.65760433       0.77777767       0.58333300 </v>
   <v>       0.44444433       0.78684033       0.41666700 </v>
   <v>       0.55555567       0.87982633       0.58333300 </v>
   <v>       0.45350700       0.67572900       0.58333300 </v>
   <v>       0.54649300       0.99093767       0.41666700 </v>
   <v>       0.34239567       0.88888900       0.41666700 </v>
   <v>       0.54649300       0.88888900       0.91666700 </v>
   <v>       0.33333333       0.89795133       0.75000000 </v>
   <v>       0.44444433       0.99093767       0.91666700 </v>
   <v>       0.34239567       0.78684033       0.91666700 </v>
   <v>       0.43538200       0.76871533       0.75000000 </v>
   <v>       0.56461800       0.66666667       0.75000000 </v>
   <v>       0.76871533       0.00000000       0.25000000 </v>
   <v>       0.88888900       0.00906233       0.08333300 </v>
   <v>       0.66666667       0.10204867       0.25000000 </v>
   <v>       0.89795133       0.23128467       0.25000000 </v>
   <v>       0.99093767       0.21315967       0.08333300 </v>
   <v>       0.78684033       0.11111100       0.08333300 </v>
   <v>       0.99093767       0.11111100       0.58333300 </v>
   <v>       0.77777767       0.12017367       0.41666700 </v>
   <v>       0.88888900       0.21315967       0.58333300 </v>
   <v>       0.78684033       0.00906233       0.58333300 </v>
   <v>       0.87982633       0.32427100       0.41666700 </v>
   <v>       0.67572900       0.22222233       0.41666700 </v>
   <v>       0.87982633       0.22222233       0.91666700 </v>
   <v>       0.66666667       0.23128467       0.75000000 </v>
   <v>       0.77777767       0.32427100       0.91666700 </v>
   <v>       0.67572900       0.12017367       0.91666700 </v>
   <v>       0.76871533       0.10204867       0.75000000 </v>
   <v>       0.89795133       0.00000000       0.75000000 </v>
   <v>       0.76871533       0.33333333       0.25000000 </v>
   <v>       0.88888900       0.34239567       0.08333300 </v>
   <v>       0.66666667       0.43538200       0.25000000 </v>
   <v>       0.89795133       0.56461800       0.25000000 </v>
   <v>       0.99093767       0.54649300       0.08333300 </v>
   <v>       0.78684033       0.44444433       0.08333300 </v>
   <v>       0.99093767       0.44444433       0.58333300 </v>
   <v>       0.77777767       0.45350700       0.41666700 </v>
   <v>       0.88888900       0.54649300       0.58333300 </v>
   <v>       0.78684033       0.34239567       0.58333300 </v>
   <v>       0.87982633       0.65760433       0.41666700 </v>
   <v>       0.67572900       0.55555567       0.41666700 </v>
   <v>       0.87982633       0.55555567       0.91666700 </v>
   <v>       0.66666667       0.56461800       0.75000000 </v>
   <v>       0.77777767       0.65760433       0.91666700 </v>
   <v>       0.67572900       0.45350700       0.91666700 </v>
   <v>       0.76871533       0.43538200       0.75000000 </v>
   <v>       0.89795133       0.33333333       0.75000000 </v>
   <v>       0.76871533       0.66666667       0.25000000 </v>
   <v>       0.88888900       0.67572900       0.08333300 </v>
   <v>       0.66666667       0.76871533       0.25000000 </v>
   <v>       0.89795133       0.89795133       0.25000000 </v>
   <v>       0.99093767       0.87982633       0.08333300 </v>
   <v>       0.78684033       0.77777767       0.08333300 </v>
   <v>       0.99093767       0.77777767       0.58333300 </v>
   <v>       0.77777767       0.78684033       0.41666700 </v>
   <v>       0.88888900       0.87982633       0.58333300 </v>
   <v>       0.78684033       0.67572900       0.58333300 </v>
   <v>       0.87982633       0.99093767       0.41666700 </v>
   <v>       0.67572900       0.88888900       0.41666700 </v>
   <v>       0.87982633       0.88888900       0.91666700 </v>
   <v>       0.66666667       0.89795133       0.75000000 </v>
   <v>       0.77777767       0.99093767       0.91666700 </v>
   <v>       0.67572900       0.78684033       0.91666700 </v>
   <v>       0.76871533       0.76871533       0.75000000 </v>
   <v>       0.89795133       0.66666667       0.75000000 </v>
  </varray>
 </structure>
 <calculation>
  <scstep>
   <time name="dav">   10.04   10.06</time>
   <time name="total">   10.46   10.49</time>
   <energy>
    <i name="alphaZ">   2193.09994489 </i>
    <i name="ewald"> -64126.56142883 </i>
    <i name="hartreedc"> -17456.00231448 </i>
    <i name="XCdc">   1518.50600396 </i>
    <i name="pawpsdc">  63712.16139133 </i>
    <i name="pawaedc"> -60130.92667576 </i>
    <i name="eentropy">     -0.04294286 </i>
    <i name="bandstr">   6805.39975152 </i>
    <i name="atom">  75764.09199595 </i>
    <i name="e_fr_energy">   8279.72572571 </i>
    <i name="e_wo_entrp">   8279.76866857 </i>
    <i name="e_0_energy">   8279.74719714 </i>
   </energy>
  </scstep>
  <scstep>
   <time name="dav">   12.14   12.14</time>
   <time name="total">   12.14   12.14</time>
   <energy>
    <i name="e_fr_energy">  -1347.96840269 </i>
    <i name="e_wo_entrp">  -1347.96840269 </i>
    <i name="e_0_energy">  -1347.96840269 </i>
   </energy>
  </scstep>
  <scstep>
   <time name="dav">   13.31   13.31</time>
   <time name="total">   13.31   13.31</time>
   <energy>
    <i name="e_fr_energy">  -2173.93380126 </i>
    <i name="e_wo_entrp">  -2173.93380126 </i>
    <i name="e_0_energy">  -2173.93380126 </i>
   </energy>
  </scstep>
  <scstep>
   <time name="dav">   12.70   12.70</time>
   <time name="total">   12.70   12.70</time>
   <energy>
    <i name="e_fr_energy">  -2196.62090344 </i>
    <i name="e_wo_entrp">  -2196.62090344 </i>
    <i name="e_0_energy">  -2196.62090344 </i>
   </energy>
  </scstep>
  <scstep>
   <time name="dav">   13.41   13.41</time>
   <time name="total">   14.01   14.02</time>
   <energy>
    <i name="e_fr_energy">  -2197.49221377 </i>
    <i name="e_wo_entrp">  -2197.49221377 </i>
    <i name="e_0_energy">  -2197.49221377 </i>
   </energy>
  </scstep>
  <scstep>
   <time name="dav">   13.40   13.40</time>
   <time name="total">   14.43   14.43</time>
   <energy>
    <i name="e_fr_energy">  -1998.50611613 </i>
    <i name="e_wo_entrp">  -1998.50611613 </i>
    <i name="e_0_energy">  -1998.50611613 </i>
   </energy>
  </scstep>
  <scstep>
   <time name="dav">   12.22   12.22</time>
   <time name="total">   13.25   13.25</time>
   <energy>
    <i name="e_fr_energy">  -1997.40914108 </i>
    <i name="e_wo_entrp">  -1997.40914108 </i>
    <i name="e_0_energy">  -1997.40914108 </i>
   </energy>
  </scstep>
  <scstep>
   <time name="dav">   11.24   11.24</time>
   <time name="total">   12.27   12.27</time>
   <energy>
    <i name="e_fr_energy">  -1997.16504181 </i>
    <i name="e_wo_entrp">  -1997.16504181 </i>
    <i name="e_0_energy">  -1997.16504181 </i>
   </energy>
  </scstep>
  <scstep>
   <time name="dav">   13.37   13.37</time>
   <time name="total">   14.39   14.39</time>
   <energy>
    <i name="e_fr_energy">  -1996.97628005 </i>
    <i name="e_wo_entrp">  -1996.97628005 </i>
    <i name="e_0_energy">  -1996.97628005 </i>
   </energy>
  </scstep>
  <scstep>
   <time name="dav">   11.46   11.46</time>
   <time name="total">   12.48   12.49</time>
   <energy>
    <i name="e_fr_energy">  -1996.99564444 </i>
    <i name="e_wo_entrp">  -1996.99564444 </i>
    <i name="e_0_energy">  -1996.99564444 </i>
   </energy>
  </scstep>
  <scstep>
   <time name="dav">   11.35   11.35</time>
   <time name="total">   12.37   12.38</time>
   <energy>
    <i name="e_fr_energy">  -1997.00079470 </i>
    <i name="e_wo_entrp">  -1997.00079470 </i>
    <i name="e_0_energy">  -1997.00079470 </i>
   </energy>
  </scstep>
  <scstep>
   <time name="dav">   11.38   11.38</time>
   <time name="total">   12.41   12.41</time>
   <energy>
    <i name="e_fr_energy">  -1997.00074640 </i>
    <i name="e_wo_entrp">  -1997.00074640 </i>
    <i name="e_0_energy">  -1997.00074640 </i>
   </energy>
  </scstep>
  <scstep>
   <time name="dav">   11.83   11.83</time>
   <time name="total">   12.87   12.87</time>
   <energy>
    <i name="e_fr_energy">  -1997.00075154 </i>
    <i name="e_wo_entrp">  -1997.00075154 </i>
    <i name="e_0_energy">  -1997.00075154 </i>
   </energy>
  </scstep>
  <scstep>
   <time name="dav">    8.20    8.20</time>
   <time name="total">    9.23    9.23</time>
   <energy>
    <i name="e_fr_energy">  -1997.00074152 </i>
    <i name="e_wo_entrp">  -1997.00074152 </i>
    <i name="e_0_energy">  -1997.00074152 </i>
   </energy>
  </scstep>
  <scstep>
   <time name="dav">    8.15    8.15</time>
   <time name="total">    8.58    8.58</time>
   <energy>
    <i name="alphaZ">   2193.09994489 </i>
    <i name="ewald"> -64126.56142883 </i>
    <i name="hartreedc"> -20305.42004443 </i>
    <i name="XCdc">   1734.06895735 </i>
    <i name="pawpsdc"> 126099.58761358 </i>
    <i name="pawaedc">-122559.36338205 </i>
    <i name="eentropy">     -0.00000000 </i>
    <i name="bandstr">   -796.50439336 </i>
    <i name="atom">  75764.09199595 </i>
    <i name="e_fr_energy">  -1997.00073690 </i>
    <i name="e_wo_entrp">  -1997.00073690 </i>
    <i name="e_0_energy">  -1997.00073690 </i>
   </energy>
  </scstep>
  <structure>
   <crystal>
    <varray name="basis" >
     <v>      14.41508400       0.00000000       0.00000000 </v>
     <v>      -7.20754200      12.48382800       0.00000000 </v>
     <v>       0.00000000       0.00000000      13.11625400 </v>
    </varray>
    <i name="volume">   2360.34111887 </i>
    <varray name="rec_basis" >
     <v>       0.06937178       0.04005182      -0.00000000 </v>
     <v>       0.00000000       0.08010363       0.00000000 </v>
     <v>       0.00000000      -0.00000000       0.07624128 </v>
    </varray>
   </crystal>
   <varray name="positions" >
    <v>       0.00000000       0.00000000       0.14790400 </v>
    <v>       0.11111100       0.22222233       0.01876300 </v>
    <v>       0.11111100       0.22222233       0.31457100 </v>
    <v>       0.22222233       0.11111100       0.18542900 </v>
    <v>       0.22222233       0.11111100       0.48123700 </v>
    <v>       0.00000000       0.00000000       0.35209600 </v>
    <v>       0.00000000       0.00000000       0.64790400 </v>
    <v>       0.11111100       0.22222233       0.51876300 </v>
    <v>       0.11111100       0.22222233       0.81457100 </v>
    <v>       0.22222233       0.11111100       0.68542900 </v>
    <v>       0.22222233       0.11111100       0.98123700 </v>
    <v>       0.00000000       0.00000000       0.85209600 </v>
    <v>       0.00000000       0.33333333       0.14790400 </v>
    <v>       0.11111100       0.55555567       0.01876300 </v>
    <v>       0.11111100       0.55555567       0.31457100 </v>
    <v>       0.22222233       0.44444433       0.18542900 </v>
    <v>       0.22222233       0.44444433       0.48123700 </v>
    <v>       0.00000000       0.33333333       0.35209600 </v>
    <v>       0.00000000       0.33333333       0.64790400 </v>
    <v>       0.11111100       0.55555567       0.51876300 </v>
    <v>       0.11111100       0.55555567       0.81457100 </v>
    <v>       0.22222233       0.44444433       0.68542900 </v>
    <v>       0.22222233       0.44444433       0.98123700 </v>
    <v>       0.00000000       0.33333333       0.85209600 </v>
    <v>       0.00000000       0.66666667       0.14790400 </v>
    <v>       0.11111100       0.88888900       0.01876300 </v>
    <v>       0.11111100       0.88888900       0.31457100 </v>
    <v>       0.22222233       0.77777767       0.18542900 </v>
    <v>       0.22222233       0.77777767       0.48123700 </v>
    <v>       0.00000000       0.66666667       0.35209600 </v>
    <v>       0.00000000       0.66666667       0.64790400 </v>
    <v>       0.11111100       0.88888900       0.51876300 </v>
    <v>       0.11111100       0.88888900       0.81457100 </v>
    <v>       0.22222233       0.77777767       0.68542900 </v>
    <v>       0.22222233       0.77777767       0.98123700 </v>
    <v>       0.00000000       0.66666667       0.85209600 </v>
    <v>       0.33333333       0.00000000       0.14790400 </v>
    <v>       0.44444433       0.22222233       0.01876300 </v>
    <v>       0.44444433       0.22222233       0.31457100 </v>
    <v>       0.55555567       0.11111100       0.18542900 </v>
    <v>       0.55555567       0.11111100       0.48123700 </v>
    <v>       0.33333333       0.00000000       0.35209600 </v>
    <v>       0.33333333       0.00000000       0.64790400 </v>
    <v>       0.44444433       0.22222233       0.51876300 </v>
    <v>       0.44444433       0.22222233       0.81457100 </v>
    <v>       0.55555567       0.11111100       0.68542900 </v>
    <v>       0.55555567       0.11111100       0.98123700 </v>
    <v>       0.33333333       0.00000000       0.85209600 </v>
    <v>       0.33333333       0.33333333       0.14790400 </v>
    <v>       0.44444433       0.55555567       0.01876300 </v>
    <v>       0.44444433       0.55555567       0.31457100 </v>
    <v>       0.55555567       0.44444433       0.18542900 </v>
    <v>       0.55555567       0.44444433       0.48123700 </v>
    <v>       0.33333333       0.33333333       0.35209600 </v>
    <v>       0.33333333       0.33333333       0.64790400 </v>
    <v>       0.44444433       0.55555567       0.51876300 </v>
    <v>       0.44444433       0.55555567       0.81457100 </v>
    <v>       0.55555567       0.44444433       0.68542900 </v>
    <v>       0.55555567       0.44444433       0.98123700 </v>
    <v>       0.33333333       0.33333333       0.85209600 </v>
    <v>       0.33333333       0.66666667       0.14790400 </v>
    <v>       0.44444433       0.88888900       0.01876300 </v>
    <v>       0.44444433       0.88888900       0.31457100 </v>
    <v>       0.55555567       0.77777767       0.18542900 </v>
    <v>       0.55555567       0.77777767       0.48123700 </v>
    <v>       0.33333333       0.66666667       0.35209600 </v>
    <v>       0.33333333       0.66666667       0.64790400 </v>
    <v>       0.44444433       0.88888900       0.51876300 </v>
    <v>       0.44444433       0.88888900       0.81457100 </v>
    <v>       0.55555567       0.77777767       0.68542900 </v>
    <v>       0.55555567       0.77777767       0.98123700 </v>
    <v>       0.33333333       0.66666667       0.85209600 </v>
    <v>       0.66666667       0.00000000       0.14790400 </v>
    <v>       0.77777767       0.22222233       0.01876300 </v>
    <v>       0.77777767       0.22222233       0.31457100 </v>
    <v>       0.88888900       0.11111100       0.18542900 </v>
    <v>       0.88888900       0.11111100       0.48123700 </v>
    <v>       0.66666667       0.00000000       0.35209600 </v>
    <v>       0.66666667       0.00000000       0.64790400 </v>
    <v>       0.77777767       0.22222233       0.51876300 </v>
    <v>       0.77777767       0.22222233       0.81457100 </v>
    <v>       0.88888900       0.11111100       0.68542900 </v>
    <v>       0.88888900       0.11111100       0.98123700 </v>
    <v>       0.66666667       0.00000000       0.85209600 </v>
    <v>       0.66666667       0.33333333       0.14790400 </v>
    <v>       0.77777767       0.55555567       0.01876300 </v>
    <v>       0.77777767       0.55555567       0.31457100 </v>
    <v>       0.88888900       0.44444433       0.18542900 </v>
    <v>       0.88888900       0.44444433       0.48123700 </v>
    <v>       0.66666667       0.33333333       0.35209600 </v>
    <v>       0.66666667       0.33333333       0.64790400 </v>
    <v>       0.77777767       0.55555567       0.51876300 </v>
    <v>       0.77777767       0.55555567       0.81457100 </v>
    <v>       0.88888900       0.44444433       0.68542900 </v>
    <v>       0.88888900       0.44444433       0.98123700 </v>
    <v>       0.66666667       0.33333333       0.85209600 </v>
    <v>       0.66666667       0.66666667       0.14790400 </v>
    <v>       0.77777767       0.88888900       0.01876300 </v>
    <v>       0.77777767       0.88888900       0.31457100 </v>
    <v>       0.88888900       0.77777767       0.18542900 </v>
    <v>       0.88888900       0.77777767       0.48123700 </v>
    <v>       0.66666667       0.66666667       0.35209600 </v>
    <v>       0.66666667       0.66666667       0.64790400 </v>
    <v>       0.77777767       0.88888900       0.51876300 </v>
    <v>       0.77777767       0.88888900       0.81457100 </v>
    <v>       0.88888900       0.77777767       0.68542900 </v>
    <v>       0.88888900       0.77777767       0.98123700 </v>
    <v>       0.66666667       0.66666667       0.85209600 </v>
    <v>       0.10204867       0.00000000       0.25000000 </v>
    <v>       0.22222233       0.00906233       0.08333300 </v>
    <v>       0.00000000       0.10204867       0.25000000 </v>
    <v>       0.23128467       0.23128467       0.25000000 </v>
    <v>       0.32427100       0.21315967       0.08333300 </v>
    <v>       0.12017367       0.11111100       0.08333300 </v>
    <v>       0.32427100       0.11111100       0.58333300 </v>
    <v>       0.11111100       0.12017367       0.41666700 </v>
    <v>       0.22222233       0.21315967       0.58333300 </v>
    <v>       0.12017367       0.00906233       0.58333300 </v>
    <v>       0.21315967       0.32427100       0.41666700 </v>
    <v>       0.00906233       0.22222233       0.41666700 </v>
    <v>       0.21315967       0.22222233       0.91666700 </v>
    <v>       0.00000000       0.23128467       0.75000000 </v>
    <v>       0.11111100       0.32427100       0.91666700 </v>
    <v>       0.00906233       0.12017367       0.91666700 </v>
    <v>       0.10204867       0.10204867       0.75000000 </v>
    <v>       0.23128467       0.00000000       0.75000000 </v>
    <v>       0.10204867       0.33333333       0.25000000 </v>
    <v>       0.22222233       0.34239567       0.08333300 </v>
    <v>       0.00000000       0.43538200       0.25000000 </v>
    <v>       0.23128467       0.56461800       0.25000000 </v>
    <v>       0.32427100       0.54649300       0.08333300 </v>
    <v>       0.12017367       0.44444433       0.08333300 </v>
    <v>       0.32427100       0.44444433       0.58333300 </v>
    <v>       0.11111100       0.45350700       0.41666700 </v>
    <v>       0.22222233       0.54649300       0.58333300 </v>
    <v>       0.12017367       0.34239567       0.58333300 </v>
    <v>       0.21315967       0.65760433       0.41666700 </v>
    <v>       0.00906233       0.55555567       0.41666700 </v>
    <v>       0.21315967       0.55555567       0.91666700 </v>
    <v>       0.00000000       0.56461800       0.75000000 </v>
    <v>       0.11111100       0.65760433       0.91666700 </v>
    <v>       0.00906233       0.45350700       0.91666700 </v>
    <v>       0.10204867       0.43538200       0.75000000 </v>
    <v>       0.23128467       0.33333333       0.75000000 </v>
    <v>       0.10204867       0.66666667       0.25000000 </v>
    <v>       0.22222233       0.67572900       0.08333300 </v>
    <v>       0.00000000       0.76871533       0.25000000 </v>
    <v>       0.23128467       0.89795133       0.25000000 </v>
    <v>       0.32427100       0.87982633       0.08333300 </v>
    <v>       0.12017367       0.77777767       0.08333300 </v>
    <v>       0.32427100       0.77777767       0.58333300 </v>
    <v>       0.11111100       0.78684033       0.41666700 </v>
    <v>       0.22222233       0.87982633       0.58333300 </v>
    <v>       0.12017367       0.67572900       0.58333300 </v>
    <v>       0.21315967       0.99093767       0.41666700 </v>
    <v>       0.00906233       0.88888900       0.41666700 </v>
    <v>       0.21315967       0.88888900       0.91666700 </v>
    <v>       0.00000000       0.89795133       0.75000000 </v>
    <v>       0.11111100       0.99093767       0.91666700 </v>
    <v>       0.00906233       0.78684033       0.91666700 </v>
    <v>       0.10204867       0.76871533       0.75000000 </v>
    <v>       0.23128467       0.66666667       0.75000000 </v>
    <v>       0.43538200       0.00000000       0.25000000 </v>
    <v>       0.55555567       0.00906233       0.08333300 </v>
    <v>       0.33333333       0.10204867       0.25000000 </v>
    <v>       0.56461800       0.23128467       0.25000000 </v>
    <v>       0.65760433       0.21315967       0.08333300 </v>
    <v>       0.45350700       0.11111100       0.08333300 </v>
    <v>       0.65760433       0.11111100       0.58333300 </v>
    <v>       0.44444433       0.12017367       0.41666700 </v>
    <v>       0.55555567       0.21315967       0.58333300 </v>
    <v>       0.45350700       0.00906233       0.58333300 </v>
    <v>       0.54649300       0.32427100       0.41666700 </v>
    <v>       0.34239567       0.22222233       0.41666700 </v>
    <v>       0.54649300       0.22222233       0.91666700 </v>
    <v>       0.33333333       0.23128467       0.75000000 </v>
    <v>       0.44444433       0.32427100       0.91666700 </v>
    <v>       0.34239567       0.12017367       0.91666700 </v>
    <v>       0.43538200       0.10204867       0.75000000 </v>
    <v>       0.56461800       0.00000000       0.75000000 </v>
    <v>       0.43538200       0.33333333       0.25000000 </v>
    <v>       0.55555567       0.34239567       0.08333300 </v>
    <v>       0.33333333       0.43538200       0.25000000 </v>
    <v>       0.56461800       0.56461800       0.25000000 </v>
    <v>       0.65760433       0.54649300       0.08333300 </v>
    <v>       0.45350700       0.44444433       0.08333300 </v>
    <v>       0.65760433       0.44444433       0.58333300 </v>
    <v>       0.44444433       0.45350700       0.41666700 </v>
    <v>       0.55555567       0.54649300       0.58333300 </v>
    <v>       0.45350700       0.34239567       0.58333300 </v>
    <v>       0.54649300       0.65760433       0.41666700 </v>
    <v>       0.34239567       0.55555567       0.41666700 </v>
    <v>       0.54649300       0.55555567       0.91666700 </v>
    <v>       0.33333333       0.56461800       0.75000000 </v>
    <v>       0.44444433       0.65760433       0.91666700 </v>
    <v>       0.34239567       0.45350700       0.91666700 </v>
    <v>       0.43538200       0.43538200       0.75000000 </v>
    <v>       0.56461800       0.33333333       0.75000000 </v>
    <v>       0.43538200       0.66666667       0.25000000 </v>
    <v>       0.55555567       0.67572900       0.08333300 </v>
    <v>       0.33333333       0.76871533       0.25000000 </v>
    <v>       0.56461800       0.89795133       0.25000000 </v>
    <v>       0.65760433       0.87982633       0.08333300 </v>
    <v>       0.45350700       0.77777767       0.08333300 </v>
    <v>       0.65760433       0.77777767       0.58333300 </v>
    <v>       0.44444433       0.78684033       0.41666700 </v>
    <v>       0.55555567       0.87982633       0.58333300 </v>
    <v>       0.45350700       0.67572900       0.58333300 </v>
    <v>       0.54649300       0.99093767       0.41666700 </v>
    <v>       0.34239567       0.88888900       0.41666700 </v>
    <v>       0.54649300       0.88888900       0.91666700 </v>
    <v>       0.33333333       0.89795133       0.75000000 </v>
    <v>       0.44444433       0.99093767       0.91666700 </v>
    <v>       0.34239567       0.78684033       0.91666700 </v>
    <v>       0.43538200       0.76871533       0.75000000 </v>
    <v>       0.56461800       0.66666667       0.75000000 </v>
    <v>       0.76871533       0.00000000       0.25000000 </v>
    <v>       0.88888900       0.00906233       0.08333300 </v>
    <v>       0.66666667       0.10204867       0.25000000 </v>
    <v>       0.89795133       0.23128467       0.25000000 </v>
    <v>       0.99093767       0.21315967       0.08333300 </v>
    <v>       0.78684033       0.11111100       0.08333300 </v>
    <v>       0.99093767       0.11111100       0.58333300 </v>
    <v>       0.77777767       0.12017367       0.41666700 </v>
    <v>       0.88888900       0.21315967       0.58333300 </v>
    <v>       0.78684033       0.00906233       0.58333300 </v>
    <v>       0.87982633       0.32427100       0.41666700 </v>
    <v>       0.67572900       0.22222233       0.41666700 </v>
    <v>       0.87982633       0.22222233       0.91666700 </v>
    <v>       0.66666667       0.23128467       0.75000000 </v>
    <v>       0.77777767       0.32427100       0.91666700 </v>
    <v>       0.67572900       0.12017367       0.91666700 </v>
    <v>       0.76871533       0.10204867       0.75000000 </v>
    <v>       0.89795133       0.00000000       0.75000000 </v>
    <v>       0.76871533       0.33333333       0.25000000 </v>
    <v>       0.88888900       0.34239567       0.08333300 </v>
    <v>       0.66666667       0.43538200       0.25000000 </v>
    <v>       0.89795133       0.56461800       0.25000000 </v>
    <v>       0.99093767       0.54649300       0.08333300 </v>
    <v>       0.78684033       0.44444433       0.08333300 </v>
    <v>       0.99093767       0.44444433       0.58333300 </v>
    <v>       0.77777767       0.45350700       0.41666700 </v>
    <v>       0.88888900       0.54649300       0.58333300 </v>
    <v>       0.78684033       0.34239567       0.58333300 </v>
    <v>       0.87982633       0.65760433       0.41666700 </v>
    <v>       0.67572900       0.55555567       0.41666700 </v>
    <v>       0.87982633       0.55555567       0.91666700 </v>
    <v>       0.66666667       0.56461800       0.75000000 </v>
    <v>       0.77777767       0.65760433       0.91666700 </v>
    <v>       0.67572900       0.45350700       0.91666700 </v>
    <v>       0.76871533       0.43538200       0.75000000 </v>
    <v>       0.89795133       0.33333333       0.75000000 </v>
    <v>       0.76871533       0.66666667       0.25000000 </v>
    <v>       0.88888900       0.67572900       0.08333300 </v>
    <v>       0.66666667       0.76871533       0.25000000 </v>
    <v>       0.89795133       0.89795133       0.25000000 </v>
    <v>       0.99093767       0.87982633       0.08333300 </v>
    <v>       0.78684033       0.77777767       0.08333300 </v>
    <v>       0.99093767       0.77777767       0.58333300 </v>
    <v>       0.77777767       0.78684033       0.41666700 </v>
    <v>       0.88888900       0.87982633       0.58333300 </v>
    <v>       0.78684033       0.67572900       0.58333300 </v>
    <v>       0.87982633       0.99093767       0.41666700 </v>
    <v>       0.67572900       0.88888900       0.41666700 </v>
    <v>       0.87982633       0.88888900       0.91666700 </v>
    <v>       0.66666667       0.89795133       0.75000000 </v>
    <v>       0.77777767       0.99093767       0.91666700 </v>
    <v>       0.67572900       0.78684033       0.91666700 </v>
    <v>       0.76871533       0.76871533       0.75000000 </v>
    <v>       0.89795133       0.66666667       0.75000000 </v>
   </varray>
  </structure>
  <varray name="forces" >
   <v>      -0.00000000      -0.00000000      -0.01099041 </v>
   <v>      -0.00000000      -0.00000000       0.01099041 </v>
   <v>      -0.00000000      -0.00000000      -0.01099041 </v>
   <v>      -0.00000000      -0.00000000       0.01099041 </v>
   <v>      -0.00000000      -0.00000000      -0.01099041 </v>
   <v>      -0.00000000      -0.00000000       0.01099041 </v>
   <v>      -0.00000000      -0.00000000      -0.01099041 </v>
   <v>      -0.00000000      -0.00000000       0.01099041 </v>
   <v>      -0.00000000      -0.00000000      -0.01099041 </v>
   <v>      -0.00000000      -0.00000000       0.01099041 </v>
   <v>      -0.00000000      -0.00000000      -0.01099041 </v>
   <v>      -0.00000000      -0.00000000       0.01099041 </v>
   <v>      -0.00000000      -0.00000000      -0.01099041 </v>
   <v>      -0.00000000      -0.00000000       0.01099041 </v>
   <v>      -0.00000000      -0.00000000      -0.01099041 </v>
   <v>      -0.00000000      -0.00000000       0.01099041 </v>
   <v>      -0.00000000      -0.00000000      -0.01099041 </v>
   <v>      -0.00000000      -0.00000000       0.01099041 </v>
   <v>      -0.00000000      -0.00000000      -0.01099041 </v>
   <v>      -0.00000000      -0.00000000       0.01099041 </v>
   <v>      -0.00000000      -0.00000000      -0.01099041 </v>
   <v>      -0.00000000      -0.00000000       0.01099041 </v>
   <v>      -0.00000000      -0.00000000      -0.01099041 </v>
   <v>      -0.00000000      -0.00000000       0.01099041 </v>
   <v>      -0.00000000      -0.00000000      -0.01099041 </v>
   <v>      -0.00000000      -0.00000000       0.01099041 </v>
   <v>      -0.00000000      -0.00000000      -0.01099041 </v>
   <v>      -0.00000000      -0.00000000       0.01099041 </v>
   <v>      -0.00000000      -0.00000000      -0.01099041 </v>
   <v>      -0.00000000      -0.00000000       0.01099041 </v>
   <v>      -0.00000000      -0.00000000      -0.01099041 </v>
   <v>      -0.00000000      -0.00000000       0.01099041 </v>
   <v>      -0.00000000      -0.00000000      -0.01099041 </v>
   <v>      -0.00000000      -0.00000000       0.01099041 </v>
   <v>      -0.00000000      -0.00000000      -0.01099041 </v>
   <v>      -0.00000000      -0.00000000       0.01099041 </v>
   <v>      -0.00000000      -0.00000000      -0.01099041 </v>
   <v>      -0.00000000      -0.00000000       0.01099041 </v>
   <v>      -0.00000000      -0.00000000      -0.01099041 </v>
   <v>      -0.00000000      -0.00000000       0.01099041 </v>
   <v>      -0.00000000      -0.00000000      -0.01099041 </v>
   <v>      -0.00000000      -0.00000000       0.01099041 </v>
   <v>      -0.00000000      -0.00000000      -0.01099041 </v>
   <v>      -0.00000000      -0.00000000       0.01099041 </v>
   <v>      -0.00000000      -0.00000000      -0.01099041 </v>
   <v>      -0.00000000      -0.00000000       0.01099041 </v>
   <v>      -0.00000000      -0.00000000      -0.01099041 </v>
   <v>      -0.00000000      -0.00000000       0.01099041 </v>
   <v>      -0.00000000      -0.00000000      -0.01099041 </v>
   <v>      -0.00000000      -0.00000000       0.01099041 </v>
   <v>      -0.00000000      -0.00000000      -0.01099041 </v>
   <v>      -0.00000000      -0.00000000       0.01099041 </v>
   <v>      -0.00000000      -0.00000000      -0.01099041 </v>
   <v>      -0.00000000      -0.00000000       0.01099041 </v>
   <v>      -0.00000000      -0.00000000      -0.01099041 </v>
   <v>      -0.00000000      -0.00000000       0.01099041 </v>
   <v>      -0.00000000      -0.00000000      -0.01099041 </v>
   <v>      -0.00000000      -0.00000000       0.01099041 </v>
   <v>      -0.00000000      -0.00000000      -0.01099041 </v>
   <v>      -0.00000000      -0.00000000       0.01099041 </v>
   <v>      -0.00000000      -0.00000000      -0.01099041 </v>
   <v>      -0.00000000      -0.00000000       0.01099041 </v>
   <v>      -0.00000000      -0.00000000      -0.01099041 </v>
   <v>      -0.00000000      -0.00000000       0.01099041 </v>
   <v>      -0.00000000      -0.00000000      -0.01099041 </v>
   <v>      -0.00000000      -0.00000000       0.01099041 </v>
   <v>      -0.00000000      -0.00000000      -0.01099041 </v>
   <v>      -0.00000000      -0.00000000       0.01099041 </v>
   <v>      -0.00000000      -0.00000000      -0.01099041 </v>
   <v>      -0.00000000      -0.00000000       0.01099041 </v>
   <v>      -0.00000000      -0.00000000      -0.01099041 </v>
   <v>      -0.00000000      -0.00000000       0.01099041 </v>
   <v>      -0.00000000      -0.00000000      -0.01099041 </v>
   <v>      -0.00000000      -0.00000000       0.01099041 </v>
   <v>      -0.00000000      -0.00000000      -0.01099041 </v>
   <v>      -0.00000000      -0.00000000       0.01099041 </v>
   <v>      -0.00000000      -0.00000000      -0.01099041 </v>
   <v>      -0.00000000      -0.00000000       0.01099041 </v>
   <v>      -0.00000000      -0.00000000      -0.01099041 </v>
   <v>      -0.00000000      -0.00000000       0.01099041 </v>
   <v>      -0.00000000      -0.00000000      -0.01099041 </v>
   <v>      -0.00000000      -0.00000000       0.01099041 </v>
   <v>      -0.00000000      -0.00000000      -0.01099041 </v>
   <v>      -0.00000000      -0.00000000       0.01099041 </v>
   <v>      -0.00000000      -0.00000000      -0.01099041 </v>
   <v>      -0.00000000      -0.00000000       0.01099041 </v>
   <v>      -0.00000000      -0.00000000      -0.01099041 </v>
   <v>      -0.00000000      -0.00000000       0.01099041 </v>
   <v>      -0.00000000      -0.00000000      -0.01099041 </v>
   <v>      -0.00000000      -0.00000000       0.01099041 </v>
   <v>      -0.00000000      -0.00000000      -0.01099041 </v>
   <v>      -0.00000000      -0.00000000       0.01099041 </v>
   <v>      -0.00000000      -0.00000000      -0.01099041 </v>
   <v>      -0.00000000      -0.00000000       0.01099041 </v>
   <v>      -0.00000000      -0.00000000      -0.01099041 </v>
   <v>      -0.00000000      -0.00000000       0.01099041 </v>
   <v>      -0.00000000      -0.00000000      -0.01099041 </v>
   <v>      -0.00000000      -0.00000000       0.01099041 </v>
   <v>      -0.00000000      -0.00000000      -0.01099041 </v>
   <v>      -0.00000000      -0.00000000       0.01099041 </v>
   <v>      -0.00000000      -0.00000000      -0.01099041 </v>
   <v>      -0.00000000      -0.00000000       0.01099041 </v>
   <v>      -0.00000000      -0.00000000      -0.01099041 </v>
   <v>      -0.00000000      -0.00000000       0.01099041 </v>
   <v>      -0.00000000      -0.00000000      -0.01099041 </v>
   <v>      -0.00000000      -0.00000000       0.01099041 </v>
   <v>      -0.00000000      -0.00000000      -0.01099041 </v>
   <v>      -0.00000000      -0.00000000       0.01099041 </v>
   <v>      -0.00369244      -0.00000000      -0.00000000 </v>
   <v>      -0.00184622       0.00319774      -0.00000000 </v>
   <v>       0.00184622      -0.00319774      -0.00000000 </v>
   <v>       0.00184622       0.00319774      -0.00000000 </v>
   <v>      -0.00184622      -0.00319774      -0.00000000 </v>
   <v>       0.00369244      -0.00000000      -0.00000000 </v>
   <v>      -0.00369244      -0.00000000      -0.00000000 </v>
   <v>      -0.00184622       0.00319774      -0.00000000 </v>
   <v>       0.00184622      -0.00319774      -0.00000000 </v>
   <v>       0.00184622       0.00319774      -0.00000000 </v>
   <v>      -0.00184622      -0.00319774      -0.00000000 </v>
   <v>       0.00369244      -0.00000000      -0.00000000 </v>
   <v>      -0.00369244      -0.00000000      -0.00000000 </v>
   <v>      -0.00184622       0.00319774      -0.00000000 </v>
   <v>       0.00184622      -0.00319774      -0.00000000 </v>
   <v>       0.00184622       0.00319774      -0.00000000 </v>
   <v>      -0.00184622      -0.00319774      -0.00000000 </v>
   <v>       0.00369244      -0.00000000      -0.00000000 </v>
   <v>      -0.00369244      -0.00000000      -0.00000000 </v>
   <v>      -0.00184622       0.00319774      -0.00000000 </v>
   <v>       0.00184622      -0.00319774      -0.00000000 </v>
   <v>       0.00184622       0.00319774      -0.00000000 </v>
   <v>      -0.00184622      -0.00319774      -0.00000000 </v>
[...]
       <r>    13.2847    13.4898  1304.7441 </r>
       <r>    13.3953    26.0631  1307.6264 </r>
       <r>    13.5059    25.1641  1310.4094 </r>
       <r>    13.6165    13.9590  1311.9531 </r>
       <r>    13.7271    16.1773  1313.7422 </r>
       <r>    13.8377     0.0707  1313.7500 </r>
       <r>    13.9483     0.1955  1313.7716 </r>
       <r>    14.0588    13.9504  1315.3144 </r>
       <r>    14.1694    36.8762  1319.3926 </r>
       <r>    14.2800    31.0223  1322.8234 </r>
       <r>    14.3906    63.3718  1329.8318 </r>
       <r>    14.5012    22.9769  1332.3728 </r>
       <r>    14.6118     9.2282  1333.3934 </r>
       <r>    14.7224    32.9934  1337.0422 </r>
       <r>    14.8330   136.9539  1352.1881 </r>
       <r>    14.9436    61.3013  1358.9675 </r>
       <r>    15.0542   142.1927  1374.6928 </r>
       <r>    15.1648   115.0447  1387.4157 </r>
       <r>    15.2753   147.5538  1403.7339 </r>
       <r>    15.3859   110.5054  1415.9548 </r>
       <r>    15.4965    97.2810  1426.7132 </r>
       <r>    15.6071   120.6627  1440.0575 </r>
       <r>    15.7177    99.1155  1451.0188 </r>
       <r>    15.8283   194.2925  1472.5059 </r>
       <r>    15.9389   124.4865  1486.2730 </r>
       <r>    16.0495   124.9222  1500.0883 </r>
       <r>    16.1601    87.5271  1509.7681 </r>
       <r>    16.2707   112.9439  1522.2587 </r>
       <r>    16.3813   156.0087  1539.5119 </r>
       <r>    16.4919    94.7920  1549.9951 </r>
       <r>    16.6024    66.2906  1557.3262 </r>
       <r>    16.7130    69.5704  1565.0201 </r>
       <r>    16.8236    26.6697  1567.9695 </r>
       <r>    16.9342     0.2754  1568.0000 </r>
       <r>    17.0448     0.0000  1568.0000 </r>
       <r>    17.1554     0.0000  1568.0000 </r>
       <r>    17.2660     0.0000  1568.0000 </r>
       <r>    17.3766     0.0000  1568.0000 </r>
       <r>    17.4872     0.0000  1568.0000 </r>
       <r>    17.5978     0.0000  1568.0000 </r>
       <r>    17.7084     0.0000  1568.0000 </r>
       <r>    17.8189     0.0000  1568.0000 </r>
       <r>    17.9295     0.0000  1568.0000 </r>
       <r>    18.0401     0.0000  1568.0000 </r>
       <r>    18.1507     0.0000  1568.0000 </r>
       <r>    18.2613     0.0000  1568.0000 </r>
      </set>
     </set>
    </array>
   </total>
  </dos>
 </calculation>
 <structure name="finalpos" >
  <crystal>
   <varray name="basis" >
    <v>      14.41508400       0.00000000       0.00000000 </v>
    <v>      -7.20754200      12.48382800       0.00000000 </v>
    <v>       0.00000000       0.00000000      13.11625400 </v>
   </varray>
   <i name="volume">   2360.34111887 </i>
   <varray name="rec_basis" >
    <v>       0.06937178       0.04005182      -0.00000000 </v>
    <v>       0.00000000       0.08010363       0.00000000 </v>
    <v>       0.00000000      -0.00000000       0.07624128 </v>
   </varray>
  </crystal>
  <varray name="positions" >
   <v>      -0.00000000      -0.00000000       0.14784730 </v>
   <v>       0.11111100       0.22222233       0.01881970 </v>
   <v>       0.11111100       0.22222233       0.31451430 </v>
   <v>       0.22222233       0.11111100       0.18548570 </v>
   <v>       0.22222233       0.11111100       0.48118030 </v>
   <v>      -0.00000000      -0.00000000       0.35215270 </v>
   <v>      -0.00000000      -0.00000000       0.64784730 </v>
   <v>       0.11111100       0.22222233       0.51881970 </v>
   <v>       0.11111100       0.22222233       0.81451430 </v>
   <v>       0.22222233       0.11111100       0.68548570 </v>
   <v>       0.22222233       0.11111100       0.98118030 </v>
   <v>      -0.00000000      -0.00000000       0.85215270 </v>
   <v>      -0.00000000       0.33333333       0.14784730 </v>
   <v>       0.11111100       0.55555567       0.01881970 </v>
   <v>       0.11111100       0.55555567       0.31451430 </v>
   <v>       0.22222233       0.44444433       0.18548570 </v>
   <v>       0.22222233       0.44444433       0.48118030 </v>
   <v>      -0.00000000       0.33333333       0.35215270 </v>
   <v>      -0.00000000       0.33333333       0.64784730 </v>
   <v>       0.11111100       0.55555567       0.51881970 </v>
   <v>       0.11111100       0.55555567       0.81451430 </v>
   <v>       0.22222233       0.44444433       0.68548570 </v>
   <v>       0.22222233       0.44444433       0.98118030 </v>
   <v>      -0.00000000       0.33333333       0.85215270 </v>
   <v>      -0.00000000       0.66666667       0.14784730 </v>
   <v>       0.11111100       0.88888900       0.01881970 </v>
   <v>       0.11111100       0.88888900       0.31451430 </v>
   <v>       0.22222233       0.77777767       0.18548570 </v>
   <v>       0.22222233       0.77777767       0.48118030 </v>
   <v>      -0.00000000       0.66666667       0.35215270 </v>
   <v>      -0.00000000       0.66666667       0.64784730 </v>
   <v>       0.11111100       0.88888900       0.51881970 </v>
   <v>       0.11111100       0.88888900       0.81451430 </v>
   <v>       0.22222233       0.77777767       0.68548570 </v>
   <v>       0.22222233       0.77777767       0.98118030 </v>
   <v>      -0.00000000       0.66666667       0.85215270 </v>
   <v>       0.33333333      -0.00000000       0.14784730 </v>
   <v>       0.44444433       0.22222233       0.01881970 </v>
   <v>       0.44444433       0.22222233       0.31451430 </v>
   <v>       0.55555567       0.11111100       0.18548570 </v>
   <v>       0.55555567       0.11111100       0.48118030 </v>
   <v>       0.33333333      -0.00000000       0.35215270 </v>
   <v>       0.33333333      -0.00000000       0.64784730 </v>
   <v>       0.44444433       0.22222233       0.51881970 </v>
   <v>       0.44444433       0.22222233       0.81451430 </v>
   <v>       0.55555567       0.11111100       0.68548570 </v>
   <v>       0.55555567       0.11111100       0.98118030 </v>
   <v>       0.33333333      -0.00000000       0.85215270 </v>
   <v>       0.33333333       0.33333333       0.14784730 </v>
   <v>       0.44444433       0.55555567       0.01881970 </v>
   <v>       0.44444433       0.55555567       0.31451430 </v>
   <v>       0.55555567       0.44444433       0.18548570 </v>
   <v>       0.55555567       0.44444433       0.48118030 </v>
   <v>       0.33333333       0.33333333       0.35215270 </v>
   <v>       0.33333333       0.33333333       0.64784730 </v>
   <v>       0.44444433       0.55555567       0.51881970 </v>
   <v>       0.44444433       0.55555567       0.81451430 </v>
   <v>       0.55555567       0.44444433       0.68548570 </v>
   <v>       0.55555567       0.44444433       0.98118030 </v>
   <v>       0.33333333       0.33333333       0.85215270 </v>
   <v>       0.33333333       0.66666667       0.14784730 </v>
   <v>       0.44444433       0.88888900       0.01881970 </v>
   <v>       0.44444433       0.88888900       0.31451430 </v>
   <v>       0.55555567       0.77777767       0.18548570 </v>
   <v>       0.55555567       0.77777767       0.48118030 </v>
   <v>       0.33333333       0.66666667       0.35215270 </v>
   <v>       0.33333333       0.66666667       0.64784730 </v>
   <v>       0.44444433       0.88888900       0.51881970 </v>
   <v>       0.44444433       0.88888900       0.81451430 </v>
   <v>       0.55555567       0.77777767       0.68548570 </v>
   <v>       0.55555567       0.77777767       0.98118030 </v>
   <v>       0.33333333       0.66666667       0.85215270 </v>
   <v>       0.66666667      -0.00000000       0.14784730 </v>
   <v>       0.77777767       0.22222233       0.01881970 </v>
   <v>       0.77777767       0.22222233       0.31451430 </v>
   <v>       0.88888900       0.11111100       0.18548570 </v>
   <v>       0.88888900       0.11111100       0.48118030 </v>
   <v>       0.66666667      -0.00000000       0.35215270 </v>
   <v>       0.66666667      -0.00000000       0.64784730 </v>
   <v>       0.77777767       0.22222233       0.51881970 </v>
   <v>       0.77777767       0.22222233       0.81451430 </v>
   <v>       0.88888900       0.11111100       0.68548570 </v>
   <v>       0.88888900       0.11111100       0.98118030 </v>
   <v>       0.66666667      -0.00000000       0.85215270 </v>
   <v>       0.66666667       0.33333333       0.14784730 </v>
   <v>       0.77777767       0.55555567       0.01881970 </v>
   <v>       0.77777767       0.55555567       0.31451430 </v>
   <v>       0.88888900       0.44444433       0.18548570 </v>
   <v>       0.88888900       0.44444433       0.48118030 </v>
   <v>       0.66666667       0.33333333       0.35215270 </v>
   <v>       0.66666667       0.33333333       0.64784730 </v>
   <v>       0.77777767       0.55555567       0.51881970 </v>
   <v>       0.77777767       0.55555567       0.81451430 </v>
   <v>       0.88888900       0.44444433       0.68548570 </v>
   <v>       0.88888900       0.44444433       0.98118030 </v>
   <v>       0.66666667       0.33333333       0.85215270 </v>
   <v>       0.66666667       0.66666667       0.14784730 </v>
   <v>       0.77777767       0.88888900       0.01881970 </v>
   <v>       0.77777767       0.88888900       0.31451430 </v>
   <v>       0.88888900       0.77777767       0.18548570 </v>
   <v>       0.88888900       0.77777767       0.48118030 </v>
   <v>       0.66666667       0.66666667       0.35215270 </v>
   <v>       0.66666667       0.66666667       0.64784730 </v>
   <v>       0.77777767       0.88888900       0.51881970 </v>
   <v>       0.77777767       0.88888900       0.81451430 </v>
   <v>       0.88888900       0.77777767       0.68548570 </v>
   <v>       0.88888900       0.77777767       0.98118030 </v>
   <v>       0.66666667       0.66666667       0.85215270 </v>
   <v>       0.10203133      -0.00000000       0.25000000 </v>
   <v>       0.22222233       0.00907967       0.08333300 </v>
   <v>      -0.00000000       0.10203133       0.25000000 </v>
   <v>       0.23130200       0.23130200       0.25000000 </v>
   <v>       0.32425367       0.21314233       0.08333300 </v>
   <v>       0.12019100       0.11111100       0.08333300 </v>
   <v>       0.32425367       0.11111100       0.58333300 </v>
   <v>       0.11111100       0.12019100       0.41666700 </v>
   <v>       0.22222233       0.21314233       0.58333300 </v>
   <v>       0.12019100       0.00907967       0.58333300 </v>
   <v>       0.21314233       0.32425367       0.41666700 </v>
   <v>       0.00907967       0.22222233       0.41666700 </v>
   <v>       0.21314233       0.22222233       0.91666700 </v>
   <v>       0.00000000       0.23130200       0.75000000 </v>
   <v>       0.11111100       0.32425367       0.91666700 </v>
   <v>       0.00907967       0.12019100       0.91666700 </v>
   <v>       0.10203133       0.10203133       0.75000000 </v>
   <v>       0.23130200      -0.00000000       0.75000000 </v>
   <v>       0.10203133       0.33333333       0.25000000 </v>
   <v>       0.22222233       0.34241300       0.08333300 </v>
   <v>      -0.00000000       0.43536467       0.25000000 </v>
   <v>       0.23130200       0.56463533       0.25000000 </v>
   <v>       0.32425367       0.54647567       0.08333300 </v>
   <v>       0.12019100       0.44444433       0.08333300 </v>
   <v>       0.32425367       0.44444433       0.58333300 </v>
   <v>       0.11111100       0.45352433       0.41666700 </v>
   <v>       0.22222233       0.54647567       0.58333300 </v>
   <v>       0.12019100       0.34241300       0.58333300 </v>
   <v>       0.21314233       0.65758700       0.41666700 </v>
   <v>       0.00907967       0.55555567       0.41666700 </v>
   <v>       0.21314233       0.55555567       0.91666700 </v>
   <v>       0.00000000       0.56463533       0.75000000 </v>
   <v>       0.11111100       0.65758700       0.91666700 </v>
   <v>       0.00907967       0.45352433       0.91666700 </v>
   <v>       0.10203133       0.43536467       0.75000000 </v>
   <v>       0.23130200       0.33333333       0.75000000 </v>
   <v>       0.10203133       0.66666667       0.25000000 </v>
   <v>       0.22222233       0.67574633       0.08333300 </v>
   <v>      -0.00000000       0.76869800       0.25000000 </v>
   <v>       0.23130200       0.89796867       0.25000000 </v>
   <v>       0.32425367       0.87980900       0.08333300 </v>
   <v>       0.12019100       0.77777767       0.08333300 </v>
   <v>       0.32425367       0.77777767       0.58333300 </v>
   <v>       0.11111100       0.78685767       0.41666700 </v>
   <v>       0.22222233       0.87980900       0.58333300 </v>
   <v>       0.12019100       0.67574633       0.58333300 </v>
   <v>       0.21314233       0.99092033       0.41666700 </v>
   <v>       0.00907967       0.88888900       0.41666700 </v>
   <v>       0.21314233       0.88888900       0.91666700 </v>
   <v>       0.00000000       0.89796867       0.75000000 </v>
   <v>       0.11111100       0.99092033       0.91666700 </v>
   <v>       0.00907967       0.78685767       0.91666700 </v>
   <v>       0.10203133       0.76869800       0.75000000 </v>
   <v>       0.23130200       0.66666667       0.75000000 </v>
   <v>       0.43536467      -0.00000000       0.25000000 </v>
   <v>       0.55555567       0.00907967       0.08333300 </v>
   <v>       0.33333333       0.10203133       0.25000000 </v>
   <v>       0.56463533       0.23130200       0.25000000 </v>
   <v>       0.65758700       0.21314233       0.08333300 </v>
   <v>       0.45352433       0.11111100       0.08333300 </v>
   <v>       0.65758700       0.11111100       0.58333300 </v>
   <v>       0.44444433       0.12019100       0.41666700 </v>
   <v>       0.55555567       0.21314233       0.58333300 </v>
   <v>       0.45352433       0.00907967       0.58333300 </v>
   <v>       0.54647567       0.32425367       0.41666700 </v>
   <v>       0.34241300       0.22222233       0.41666700 </v>
   <v>       0.54647567       0.22222233       0.91666700 </v>
   <v>       0.33333333       0.23130200       0.75000000 </v>
   <v>       0.44444433       0.32425367       0.91666700 </v>
   <v>       0.34241300       0.12019100       0.91666700 </v>
   <v>       0.43536467       0.10203133       0.75000000 </v>
   <v>       0.56463533      -0.00000000       0.75000000 </v>
   <v>       0.43536467       0.33333333       0.25000000 </v>
   <v>       0.55555567       0.34241300       0.08333300 </v>
   <v>       0.33333333       0.43536467       0.25000000 </v>
   <v>       0.56463533       0.56463533       0.25000000 </v>
   <v>       0.65758700       0.54647567       0.08333300 </v>
   <v>       0.45352433       0.44444433       0.08333300 </v>
   <v>       0.65758700       0.44444433       0.58333300 </v>
   <v>       0.44444433       0.45352433       0.41666700 </v>
   <v>       0.55555567       0.54647567       0.58333300 </v>
   <v>       0.45352433       0.34241300       0.58333300 </v>
   <v>       0.54647567       0.65758700       0.41666700 </v>
   <v>       0.34241300       0.55555567       0.41666700 </v>
   <v>       0.54647567       0.55555567       0.91666700 </v>
   <v>       0.33333333       0.56463533       0.75000000 </v>
   <v>       0.44444433       0.65758700       0.91666700 </v>
   <v>       0.34241300       0.45352433       0.91666700 </v>
   <v>       0.43536467       0.43536467       0.75000000 </v>
   <v>       0.56463533       0.33333333       0.75000000 </v>
   <v>       0.43536467       0.66666667       0.25000000 </v>
   <v>       0.55555567       0.67574633       0.08333300 </v>
   <v>       0.33333333       0.76869800       0.25000000 </v>
   <v>       0.56463533       0.89796867       0.25000000 </v>
   <v>       0.65758700       0.87980900       0.08333300 </v>
   <v>       0.45352433       0.77777767       0.08333300 </v>
   <v>       0.65758700       0.77777767       0.58333300 </v>
   <v>       0.44444433       0.78685767       0.41666700 </v>
   <v>       0.55555567       0.87980900       0.58333300 </v>
   <v>       0.45352433       0.67574633       0.58333300 </v>
   <v>       0.54647567       0.99092033       0.41666700 </v>
   <v>       0.34241300       0.88888900       0.41666700 </v>
   <v>       0.54647567       0.88888900       0.91666700 </v>
   <v>       0.33333333       0.89796867       0.75000000 </v>
   <v>       0.44444433       0.99092033       0.91666700 </v>
   <v>       0.34241300       0.78685767       0.91666700 </v>
   <v>       0.43536467       0.76869800       0.75000000 </v>
   <v>       0.56463533       0.66666667       0.75000000 </v>
   <v>       0.76869800      -0.00000000       0.25000000 </v>
   <v>       0.88888900       0.00907967       0.08333300 </v>
   <v>       0.66666667       0.10203133       0.25000000 </v>
   <v>       0.89796867       0.23130200       0.25000000 </v>
   <v>       0.99092033       0.21314233       0.08333300 </v>
   <v>       0.78685767       0.11111100       0.08333300 </v>
   <v>       0.99092033       0.11111100       0.58333300 </v>
   <v>       0.77777767       0.12019100       0.41666700 </v>
   <v>       0.88888900       0.21314233       0.58333300 </v>
   <v>       0.78685767       0.00907967       0.58333300 </v>
   <v>       0.87980900       0.32425367       0.41666700 </v>
   <v>       0.67574633       0.22222233       0.41666700 </v>
   <v>       0.87980900       0.22222233       0.91666700 </v>
   <v>       0.66666667       0.23130200       0.75000000 </v>
   <v>       0.77777767       0.32425367       0.91666700 </v>
   <v>       0.67574633       0.12019100       0.91666700 </v>
   <v>       0.76869800       0.10203133       0.75000000 </v>
   <v>       0.89796867      -0.00000000       0.75000000 </v>
   <v>       0.76869800       0.33333333       0.25000000 </v>
   <v>       0.88888900       0.34241300       0.08333300 </v>
   <v>       0.66666667       0.43536467       0.25000000 </v>
   <v>       0.89796867       0.56463533       0.25000000 </v>
   <v>       0.99092033       0.54647567       0.08333300 </v>
   <v>       0.78685767       0.44444433       0.08333300 </v>
   <v>       0.99092033       0.44444433       0.58333300 </v>
   <v>       0.77777767       0.45352433       0.41666700 </v>
   <v>       0.88888900       0.54647567       0.58333300 </v>
   <v>       0.78685767       0.34241300       0.58333300 </v>
   <v>       0.87980900       0.65758700       0.41666700 </v>
   <v>       0.67574633       0.55555567       0.41666700 </v>
   <v>       0.87980900       0.55555567       0.91666700 </v>
   <v>       0.66666667       0.56463533       0.75000000 </v>
   <v>       0.77777767       0.65758700       0.91666700 </v>
   <v>       0.67574633       0.45352433       0.91666700 </v>
   <v>       0.76869800       0.43536467       0.75000000 </v>
   <v>       0.89796867       0.33333333       0.75000000 </v>
   <v>       0.76869800       0.66666667       0.25000000 </v>
   <v>       0.88888900       0.67574633       0.08333300 </v>
   <v>       0.66666667       0.76869800       0.25000000 </v>
   <v>       0.89796867       0.89796867       0.25000000 </v>
   <v>       0.99092033       0.87980900       0.08333300 </v>
   <v>       0.78685767       0.77777767       0.08333300 </v>
   <v>       0.99092033       0.77777767       0.58333300 </v>
   <v>       0.77777767       0.78685767       0.41666700 </v>
   <v>       0.88888900       0.87980900       0.58333300 </v>
   <v>       0.78685767       0.67574633       0.58333300 </v>
   <v>       0.87980900       0.99092033       0.41666700 </v>
   <v>       0.67574633       0.88888900       0.41666700 </v>
   <v>       0.87980900       0.88888900       0.91666700 </v>
   <v>       0.66666667       0.89796867       0.75000000 </v>
   <v>       0.77777767       0.99092033       0.91666700 </v>
   <v>       0.67574633       0.78685767       0.91666700 </v>
   <v>       0.76869800       0.76869800       0.75000000 </v>
   <v>       0.89796867       0.66666667       0.75000000 </v>
  </varray>
 </structure>
</modeling>
