 running on    1 total cores
 distrk:  each k-point on    1 cores,    1 groups
 distr:  one band on    1 cores,    1 groups
 OpenACC runtime initialized ...    1 GPUs detected
 vasp.6.2.1 16May21 (build Jun 16 2021 03:23:30) complex                         
 POSCAR found type information on POSCAR NiO 
 POSCAR found :  2 types and     254 ions
 scaLAPACK will be used selectively (only on CPU)
 LDA part: xc-table for Pade appr. of Perdew
 POSCAR found type information on POSCAR NiO 
 POSCAR found :  2 types and     254 ions
 POSCAR, INCAR and KPOINTS ok, starting setup
 FFT: planning ...
 WAVECAR not read
 entering main loop
       N       E                     dE             d eps       ncg     rms          rms(c)
DAV:   1     0.223532476674E+05    0.22353E+05   -0.98546E+05 12184   0.134E+03
DAV:   2     0.990350691697E+02   -0.22254E+05   -0.21262E+05 12152   0.469E+02
DAV:   3    -0.133258758704E+04   -0.14316E+04   -0.12024E+04 13488   0.131E+02
DAV:   4    -0.155905563634E+04   -0.22647E+03   -0.19039E+03 21688   0.490E+01
DAV:   5    -0.157096921377E+04   -0.11914E+02   -0.11241E+02 19456   0.118E+01    0.142E+02
DAV:   6    -0.194173249204E+04   -0.37076E+03   -0.27551E+03 15984   0.169E+02    0.288E+02
DAV:   7    -0.173756985266E+04    0.20416E+03   -0.10491E+03 13232   0.144E+02    0.234E+02
DAV:   8    -0.197979185630E+04   -0.24222E+03   -0.62285E+02 15896   0.130E+02    0.301E+02
DAV:   9    -0.195361393350E+04    0.26178E+02   -0.23053E+02 13016   0.115E+02    0.284E+02
DAV:  10    -0.167753579842E+04    0.27608E+03   -0.28890E+02 17344   0.782E+01    0.212E+02
DAV:  11    -0.153224775685E+04    0.14529E+03   -0.26524E+02 13680   0.720E+01    0.171E+02
DAV:  12    -0.158648049132E+04   -0.54233E+02   -0.39762E+02 15792   0.107E+02    0.201E+02
DAV:  13    -0.153244293427E+04    0.54038E+02   -0.24984E+02 13856   0.813E+01    0.170E+02
DAV:  14    -0.144857655154E+04    0.83866E+02   -0.15483E+02 12880   0.786E+01    0.140E+02
DAV:  15    -0.151232369177E+04   -0.63747E+02   -0.12085E+02 13184   0.750E+01    0.195E+02
DAV:  16    -0.144424028481E+04    0.68083E+02   -0.81549E+01 12624   0.444E+01    0.162E+02
DAV:  17    -0.139944282954E+04    0.44797E+02   -0.60833E+01 12848   0.349E+01    0.129E+02
DAV:  18    -0.138620763846E+04    0.13235E+02   -0.40547E+01 12784   0.388E+01    0.122E+02
DAV:  19    -0.136520183069E+04    0.21006E+02   -0.28037E+01 12856   0.283E+01    0.101E+02
DAV:  20    -0.135877545706E+04    0.64264E+01   -0.22514E+01 12984   0.308E+01    0.946E+01
DAV:  21    -0.134548161755E+04    0.13294E+02   -0.15416E+01 12960   0.254E+01    0.684E+01
DAV:  22    -0.134093888609E+04    0.45427E+01   -0.10714E+01 13024   0.206E+01    0.674E+01
DAV:  23    -0.134140625283E+04   -0.46737E+00   -0.95078E+00 13104   0.203E+01    0.683E+01
DAV:  24    -0.133609641773E+04    0.53098E+01   -0.66003E+00 13168   0.155E+01    0.581E+01
DAV:  25    -0.133188295138E+04    0.42135E+01   -0.49425E+00 13088   0.128E+01    0.462E+01
DAV:  26    -0.133102976563E+04    0.85319E+00   -0.34109E+00 13088   0.105E+01    0.438E+01
DAV:  27    -0.133020036618E+04    0.82940E+00   -0.26205E+00 13136   0.894E+00    0.384E+01
DAV:  28    -0.132853045467E+04    0.16699E+01   -0.18713E+00 13120   0.789E+00    0.293E+01
DAV:  29    -0.132738223202E+04    0.11482E+01   -0.13282E+00 13152   0.649E+00    0.238E+01
DAV:  30    -0.132712037511E+04    0.26186E+00   -0.89965E-01 13152   0.518E+00    0.228E+01
DAV:  31    -0.132676261620E+04    0.35776E+00   -0.77528E-01 13200   0.450E+00    0.179E+01
DAV:  32    -0.132663905605E+04    0.12356E+00   -0.65358E-01 13216   0.466E+00    0.177E+01
DAV:  33    -0.132715395825E+04   -0.51490E+00   -0.76278E-01 13264   0.483E+00    0.233E+01
DAV:  34    -0.132749375895E+04   -0.33980E+00   -0.83474E-01 13296   0.535E+00    0.247E+01
DAV:  35    -0.132749963916E+04   -0.58802E-02   -0.92450E-01 13280   0.570E+00    0.238E+01
DAV:  36    -0.132719476999E+04    0.30487E+00   -0.62229E-01 13280   0.460E+00    0.219E+01
DAV:  37    -0.132709504699E+04    0.99723E-01   -0.48778E-01 13280   0.407E+00    0.215E+01
DAV:  38    -0.132686932671E+04    0.22572E+00   -0.60125E-01 13312   0.450E+00    0.192E+01
DAV:  39    -0.132656041867E+04    0.30891E+00   -0.50721E-01 13392   0.397E+00    0.164E+01
DAV:  40    -0.132621644087E+04    0.34398E+00   -0.37048E-01 13328   0.330E+00    0.110E+01
DAV:  41    -0.132623030443E+04   -0.13864E-01   -0.27895E-01 13328   0.298E+00    0.118E+01
DAV:  42    -0.132612905801E+04    0.10125E+00   -0.31993E-01 13400   0.286E+00    0.106E+01
DAV:  43    -0.132597953868E+04    0.14952E+00   -0.23541E-01 13312   0.232E+00    0.662E+00
DAV:  44    -0.132598934801E+04   -0.98093E-02   -0.12003E-01 13440   0.191E+00    0.709E+00
DAV:  45    -0.132601804687E+04   -0.28699E-01   -0.98850E-02 13608   0.166E+00    0.807E+00
DAV:  46    -0.132596415754E+04    0.53889E-01   -0.75044E-02 13392   0.134E+00    0.683E+00
DAV:  47    -0.132591948699E+04    0.44671E-01   -0.36943E-02 13392   0.896E-01    0.520E+00
DAV:  48    -0.132591359765E+04    0.58893E-02   -0.26149E-02 13552   0.751E-01    0.430E+00
DAV:  49    -0.132593195731E+04   -0.18360E-01   -0.37079E-02 13736   0.992E-01    0.489E+00
DAV:  50    -0.132594326904E+04   -0.11312E-01   -0.41810E-02 13600   0.112E+00    0.579E+00
DAV:  51    -0.132605657843E+04   -0.11331E+00   -0.65706E-02 15792   0.138E+00    0.953E+00
DAV:  52    -0.132596240661E+04    0.94172E-01   -0.43858E-02 13616   0.105E+00    0.639E+00
DAV:  53    -0.132591381789E+04    0.48589E-01   -0.27339E-02 13536   0.852E-01    0.418E+00
DAV:  54    -0.132590878640E+04    0.50315E-02   -0.19911E-02 13640   0.682E-01    0.377E+00
DAV:  55    -0.132591268909E+04   -0.39027E-02   -0.24508E-02 13696   0.808E-01    0.363E+00
DAV:  56    -0.132589127358E+04    0.21416E-01   -0.25803E-02 13600   0.912E-01    0.219E+00
DAV:  57    -0.132588432594E+04    0.69476E-02   -0.11704E-02 13584   0.593E-01    0.157E+00
DAV:  58    -0.132588848529E+04   -0.41593E-02   -0.92054E-03 13656   0.508E-01    0.184E+00
DAV:  59    -0.132588521423E+04    0.32711E-02   -0.81070E-03 13584   0.486E-01    0.131E+00
DAV:  60    -0.132588272958E+04    0.24847E-02   -0.38621E-03 13640   0.339E-01    0.796E-01
DAV:  61    -0.132589266489E+04   -0.99353E-02   -0.85294E-03 16704   0.508E-01    0.184E+00
DAV:  62    -0.132588666386E+04    0.60010E-02   -0.76233E-03 14992   0.514E-01    0.111E+00
DAV:  63    -0.132588843066E+04   -0.17668E-02   -0.37017E-03 16216   0.338E-01    0.123E+00
DAV:  64    -0.132588787269E+04    0.55797E-03   -0.28540E-03 15296   0.297E-01    0.702E-01
DAV:  65    -0.132588771432E+04    0.15837E-03   -0.13951E-03 15104   0.208E-01    0.512E-01
DAV:  66    -0.132589444334E+04   -0.67290E-02   -0.40361E-03 15848   0.367E-01    0.163E+00
DAV:  67    -0.132588955886E+04    0.48845E-02   -0.35222E-03 14632   0.348E-01    0.768E-01
DAV:  68    -0.132588936963E+04    0.18923E-03   -0.90074E-04 14240   0.161E-01    0.512E-01
DAV:  69    -0.132588969873E+04   -0.32910E-03   -0.46997E-04 13856   0.111E-01    0.252E-01
DAV:  70    -0.132589050138E+04   -0.80266E-03   -0.33376E-04 13872   0.962E-02    0.311E-01
DAV:  71    -0.132589173775E+04   -0.12364E-02   -0.48259E-04 13968   0.121E-01    0.586E-01
DAV:  72    -0.132589136096E+04    0.37678E-03   -0.37738E-04 13904   0.105E-01    0.246E-01
DAV:  73    -0.132589165257E+04   -0.29160E-03   -0.12999E-04 14392   0.574E-02    0.225E-01
DAV:  74    -0.132589254466E+04   -0.89210E-03   -0.11576E-04 13938   0.619E-02    0.297E-01
DAV:  75    -0.132589328092E+04   -0.73626E-03   -0.10862E-04 14040   0.532E-02    0.338E-01
DAV:  76    -0.132589408520E+04   -0.80428E-03   -0.35426E-04 14712   0.110E-01    0.499E-01
DAV:  77    -0.132589380148E+04    0.28372E-03   -0.32632E-04 14280   0.103E-01    0.246E-01
DAV:  78    -0.132589445954E+04   -0.65806E-03   -0.14439E-04 17352   0.554E-02    0.202E-01
DAV:  79    -0.132589505094E+04   -0.59140E-03   -0.87974E-05 14856   0.427E-02    0.154E-01
DAV:  80    -0.132589549081E+04   -0.43987E-03   -0.69412E-05 14504   0.387E-02    0.123E-01
DAV:  81    -0.132589641681E+04   -0.92600E-03   -0.19882E-04 15665   0.764E-02    0.392E-01
DAV:  82    -0.132589631386E+04    0.10295E-03   -0.17613E-04 14928   0.732E-02    0.125E-01
DAV:  83    -0.132589644073E+04   -0.12687E-03   -0.42368E-05 12480   0.309E-02    0.111E-01
DAV:  84    -0.132589655685E+04   -0.11611E-03   -0.33448E-05 11152   0.274E-02    0.120E-01
DAV:  85    -0.132589682765E+04   -0.27081E-03   -0.42147E-05 12128   0.293E-02    0.107E-01
DAV:  86    -0.132589685419E+04   -0.26538E-04   -0.43025E-05 12624   0.385E-02    0.135E-01
DAV:  87    -0.132589698751E+04   -0.13332E-03   -0.37911E-05 11480   0.343E-02    0.104E-01
DAV:  88    -0.132589712384E+04   -0.13633E-03   -0.27608E-05 10736   0.221E-02    0.813E-02
DAV:  89    -0.132589718338E+04   -0.59549E-04   -0.15417E-05  9712   0.191E-02    0.700E-02
DAV:  90    -0.132589726619E+04   -0.82809E-04   -0.16309E-05  9408   0.175E-02    0.682E-02
DAV:  91    -0.132589726907E+04   -0.28792E-05   -0.14172E-05  7768   0.202E-02
   1 F= -.14232825E+04 E0= -.14225324E+04  d E =-.150022E+01
