LAMMPS (24 Mar 2022)
OMP_NUM_THREADS environment is not set. Defaulting to 1 thread. (src/comm.cpp:98)
  using 1 OpenMP thread(s) per MPI task
Reading data file ...
  triclinic box = (0 0 0) to (14.415084 12.483828 13.116254) with tilt (-7.207542 0 0)
  1 by 1 by 1 MPI processor grid
  reading atoms ...
  108 atoms
  read_data CPU = 0.043 seconds
WARNING: Using 'neigh_modify every 1 delay 0 check yes' setting during minimization (src/min.cpp:187)
Neighbor list info ...
  update every 1 steps, delay 0 steps, check yes
  max neighbors/atom: 2000, page size: 100000
  master list distance cutoff = 8.28721
  ghost atom cutoff = 8.28721
  binsize = 4.143605, bins = 6 4 4
  1 neighbor lists, perpetual/occasional/extra = 1 0 0
  (1) pair eam/alloy, perpetual
      attributes: half, newton on
      pair build: half/bin/newton/tri
      stencil: half/bin/3d/tri
      bin: standard
Setting up cg style minimization ...
  Unit style    : metal
  Current step  : 0
Per MPI rank memory allocation (min/avg/max) = 4.473 | 4.473 | 4.473 Mbytes
   Step          Temp          E_pair         E_mol          TotEng         Press     
         0   0             -316.06876      0             -316.06876     -90277.485    
Loop time of 2.598e-06 on 1 procs for 0 steps with 108 atoms

115.5% CPU use with 1 MPI tasks x 1 OpenMP threads

Minimization stats:
  Stopping criterion = max iterations
  Energy initial, next-to-last, final = 
     -316.068756414721                  0  -316.068756414721
  Force two-norm initial, final = 8.9956101 8.9956101
  Force max component initial, final = 0.86560955 0.86560955
  Final line search alpha, max atom move = 0 0
  Iterations, force evaluations = 0 0

MPI task timing breakdown:
Section |  min time  |  avg time  |  max time  |%varavg| %total
---------------------------------------------------------------
Pair    | 0          | 0          | 0          |   0.0 |  0.00
Neigh   | 0          | 0          | 0          |   0.0 |  0.00
Comm    | 0          | 0          | 0          |   0.0 |  0.00
Output  | 0          | 0          | 0          |   0.0 |  0.00
Modify  | 0          | 0          | 0          |   0.0 |  0.00
Other   |            | 2.598e-06  |            |       |100.00

Nlocal:            108 ave         108 max         108 min
Histogram: 1 0 0 0 0 0 0 0 0 0
Nghost:           1062 ave        1062 max        1062 min
Histogram: 1 0 0 0 0 0 0 0 0 0
Neighs:           5886 ave        5886 max        5886 min
Histogram: 1 0 0 0 0 0 0 0 0 0

Total # of neighbors = 5886
Ave neighs/atom = 54.5
Neighbor list builds = 0
Dangerous builds = 0
Setting up Verlet run ...
  Unit style    : metal
  Current step  : 0
  Time step     : 0.01
Per MPI rank memory allocation (min/avg/max) = 4.352 | 4.352 | 4.352 Mbytes
   Step          Temp          E_pair         E_mol          TotEng         Press     
         0   300           -316.06876      0             -311.91951     -88399.837    
       100   763.30792     -322.65254      0             -312.09535     -44506.475    
       200   756.4665      -322.55716      0             -312.0946      -48435.843    
       300   754.45766     -322.50355      0             -312.06877     -45870.523    
       400   766.64983     -322.65865      0             -312.05524     -49995.934    
       500   842.89699     -323.73729      0             -312.07932     -51039.184    
       600   829.73831     -323.55025      0             -312.07427     -53880.301    
       700   870.85712     -324.17062      0             -312.12594     -45652.028    
       800   805.93355     -323.28609      0             -312.13936     -49831.966    
       900   808.69283     -323.26004      0             -312.07515     -50285.097    
      1000   903.68527     -324.6147       0             -312.11598     -54032.686    
      1100   770.90148     -322.68809      0             -312.02588     -53716.245    
      1200   806.9979      -323.24098      0             -312.07953     -49485.716    
      1300   715.32528     -321.9258       0             -312.03225     -53487.534    
      1400   764.54276     -322.62474      0             -312.05047     -51066.946    
      1500   758.91928     -322.53478      0             -312.03829     -50451.178    
      1600   837.6877      -323.70876      0             -312.12284     -53629.237    
      1700   806.78479     -323.25993      0             -312.10142     -54208.094    
      1800   801.91897     -323.20172      0             -312.11051     -53435.121    
      1900   783.49019     -322.93997      0             -312.10365     -49522.381    
      2000   770.93552     -322.75525      0             -312.09257     -53194.812    
      2100   849.13356     -323.85304      0             -312.10882     -51291.69     
      2200   812.5771      -323.35477      0             -312.11615     -50022.824    
      2300   872.41258     -324.18549      0             -312.1193      -48016.192    
      2400   830.19302     -323.54762      0             -312.06536     -46386.772    
      2500   800.2984      -323.16619      0             -312.0974      -36706.887    
      2600   923.06739     -324.87271      0             -312.10591     -48209.547    
      2700   789.32547     -323.04172      0             -312.12469     -48741.741    
      2800   792.10751     -323.08117      0             -312.12566     -40603.387    
      2900   887.95646     -324.42928      0             -312.1481      -51937.18     
      3000   815.39171     -323.39776      0             -312.12022     -49728.438    
      3100   762.53594     -322.60318      0             -312.05667     -47145.774    
      3200   796.00829     -323.11152      0             -312.10206     -53949.144    
      3300   889.87229     -324.46931      0             -312.16163     -56044.007    
      3400   824.12087     -323.51741      0             -312.11913     -47413.118    
      3500   785.80189     -323.00345      0             -312.13515     -50506.447    
      3600   753.53833     -322.50208      0             -312.08002     -46191.803    
      3700   855.22443     -323.94926      0             -312.12079     -55162.545    
      3800   826.3411      -323.56588      0             -312.1369      -52958.664    
      3900   836.60192     -323.71961      0             -312.14871     -51824.82     
      4000   822.51426     -323.50288      0             -312.12682     -53217.856    
      4100   758.00515     -322.62383      0             -312.13999     -51832.481    
      4200   787.84231     -323.024        0             -312.12748     -41505.552    
      4300   833.84377     -323.6585       0             -312.12574     -45779.563    
      4400   821.46351     -323.47534      0             -312.11381     -50481.995    
      4500   761.32885     -322.60729      0             -312.07747     -42379.285    
      4600   751.94447     -322.52001      0             -312.11999     -49248.744    
      4700   834.72901     -323.71043      0             -312.16543     -55239.431    
      4800   704.6895      -321.82496      0             -312.07852     -50248.343    
      4900   771.25941     -322.78169      0             -312.11452     -48274.245    
      5000   784.32603     -322.94056      0             -312.09267     -51701.573    
      5100   794.80653     -323.08859      0             -312.09576     -52930.989    
      5200   858.00092     -324.01978      0             -312.15291     -47882.879    
      5300   828.65181     -323.61196      0             -312.15101     -45278.54     
      5400   787.65134     -323.03102      0             -312.13714     -50162.798    
      5500   794.22031     -323.10023      0             -312.1155      -41929.039    
      5600   915.99766     -324.8509       0             -312.18189     -35799.86     
      5700   762.14612     -322.65681      0             -312.11569     -40478.601    
      5800   754.22798     -322.58021      0             -312.14861     -51187.898    
      5900   735.23067     -322.3261       0             -312.15725     -51678.672    
      6000   683.03531     -321.51658      0             -312.06963     -45702.684    
      6100   750.58133     -322.50479      0             -312.12363     -52731.136    
      6200   791.38404     -323.13325      0             -312.18775     -51296.496    
      6300   810.85268     -323.36767      0             -312.1529      -48392.891    
      6400   736.50698     -322.30998      0             -312.12348     -52056.927    
      6500   725.86684     -322.18841      0             -312.14907     -50523.003    
      6600   861.53331     -324.0843       0             -312.16858     -57630.667    
      6700   801.96191     -323.23203      0             -312.14023     -51679.215    
      6800   876.08565     -324.27136      0             -312.15436     -55277.324    
      6900   832.26135     -323.61051      0             -312.09964     -45807.895    
      7000   829.36493     -323.59139      0             -312.12058     -43031.963    
      7100   732.21339     -322.16404      0             -312.03692     -48656.62     
      7200   777.01135     -322.84595      0             -312.09923     -49664.022    
      7300   772.66739     -322.81029      0             -312.12366     -51655.155    
      7400   809.54819     -323.29366      0             -312.09693     -51254.815    
      7500   904.95098     -324.6415       0             -312.12527     -54044.902    
      7600   829.73885     -323.59151      0             -312.11553     -48549.116    
      7700   835.04265     -323.66984      0             -312.1205      -50673.878    
      7800   752.8947      -322.49933      0             -312.08616     -48227.392    
      7900   835.29787     -323.67223      0             -312.11936     -47034.115    
      8000   877.25495     -324.25854      0             -312.12537     -54859.277    
      8100   798.15946     -323.11298      0             -312.07376     -51358.938    
      8200   855.49913     -323.99419      0             -312.16192     -52959.434    
      8300   775.07653     -322.83177      0             -312.11182     -56348.356    
      8400   793.03419     -323.12508      0             -312.15675     -56073.382    
      8500   871.04814     -324.22032      0             -312.173       -48749.763    
      8600   813.71647     -323.40922      0             -312.15484     -54096.855    
      8700   849.09562     -323.9061       0             -312.1624      -53593.088    
      8800   827.58105     -323.59039      0             -312.14425     -51825.937    
      8900   839.80537     -323.79561      0             -312.1804      -51851.021    
      9000   799.06896     -323.179        0             -312.12721     -50170.707    
      9100   856.18154     -323.9385       0             -312.09679     -51963.844    
      9200   785.79121     -322.99408      0             -312.12593     -50784.296    
      9300   676.04903     -321.40968      0             -312.05936     -47808.884    
      9400   854.07871     -323.98898      0             -312.17635     -55633.482    
      9500   825.88127     -323.57166      0             -312.14903     -51803.596    
      9600   789.75018     -323.04772      0             -312.12482     -51583.261    
      9700   779.6963      -322.88993      0             -312.10608     -49844.31     
      9800   803.42044     -323.17474      0             -312.06276     -55446.663    
      9900   810.1769      -323.30019      0             -312.09477     -49032.989    
     10000   867.5899      -324.11681      0             -312.11731     -56784.453    
Loop time of 2.44156 on 1 procs for 10000 steps with 108 atoms

Performance: 3538.720 ns/day, 0.007 hours/ns, 4095.740 timesteps/s
99.5% CPU use with 1 MPI tasks x 1 OpenMP threads

MPI task timing breakdown:
Section |  min time  |  avg time  |  max time  |%varavg| %total
---------------------------------------------------------------
Pair    | 1.9981     | 1.9981     | 1.9981     |   0.0 | 81.84
Neigh   | 0.27571    | 0.27571    | 0.27571    |   0.0 | 11.29
Comm    | 0.066492   | 0.066492   | 0.066492   |   0.0 |  2.72
Output  | 0.078348   | 0.078348   | 0.078348   |   0.0 |  3.21
Modify  | 0.010069   | 0.010069   | 0.010069   |   0.0 |  0.41
Other   |            | 0.01289    |            |       |  0.53

Nlocal:            108 ave         108 max         108 min
Histogram: 1 0 0 0 0 0 0 0 0 0
Nghost:           1225 ave        1225 max        1225 min
Histogram: 1 0 0 0 0 0 0 0 0 0
Neighs:           5901 ave        5901 max        5901 min
Histogram: 1 0 0 0 0 0 0 0 0 0

Total # of neighbors = 5901
Ave neighs/atom = 54.638889
Neighbor list builds = 999
Dangerous builds = 998
System init for write_restart ...
Total wall time: 0:00:02
