ITEM: TIMESTEP
0
ITEM: NUMBER OF ATOMS
4
ITEM: BOX BOUNDS pp pp pp
0.0000000000000000e+00 1.4500000000000000e+01
0.0000000000000000e+00 1.4500000000000000e+01
0.0000000000000000e+00 1.4500000000000000e+01
ITEM: ATOMS id type xs ys zs
1 1 0 0 0
2 1 0.0832414 0 0
3 1 0 0 0.110345
4 1 0.0832414 0 0.110345
ITEM: TIMESTEP
10
ITEM: NUMBER OF ATOMS
4
ITEM: BOX BOUNDS pp pp pp
0.0000000000000000e+00 1.4500000000000000e+01
0.0000000000000000e+00 1.4500000000000000e+01
0.0000000000000000e+00 1.4500000000000000e+01
ITEM: ATOMS id type xs ys zs
1 1 -0.00360077 -0.00130544 0.00356332
2 1 0.0857807 0.000461002 0.00126663
3 1 -0.00334607 0.00107349 0.108362
4 1 0.0876489 -0.000229051 0.107498
ITEM: TIMESTEP
20
ITEM: NUMBER OF ATOMS
4
ITEM: BOX BOUNDS pp pp pp
0.0000000000000000e+00 1.4500000000000000e+01
0.0000000000000000e+00 1.4500000000000000e+01
0.0000000000000000e+00 1.4500000000000000e+01
ITEM: ATOMS id type xs ys zs
1 1 -0.00892941 -0.00268883 0.0108155
2 1 0.090501 0.00104421 0.00612889
3 1 -0.00833803 0.00221245 0.103159
4 1 0.0932492 -0.00056783 0.100586
ITEM: TIMESTEP
30
ITEM: NUMBER OF ATOMS
4
ITEM: BOX BOUNDS pp pp pp
0.0000000000000000e+00 1.4500000000000000e+01
0.0000000000000000e+00 1.4500000000000000e+01
0.0000000000000000e+00 1.4500000000000000e+01
ITEM: ATOMS id type xs ys zs
1 1 -0.011546 -0.00432077 0.0179847
2 1 0.0931409 0.00183406 0.0111106
3 1 -0.0106817 0.00361424 0.0984507
4 1 0.0955696 -0.00112754 0.0931437
ITEM: TIMESTEP
40
ITEM: NUMBER OF ATOMS
4
ITEM: BOX BOUNDS pp pp pp
0.0000000000000000e+00 1.4500000000000000e+01
0.0000000000000000e+00 1.4500000000000000e+01
0.0000000000000000e+00 1.4500000000000000e+01
ITEM: ATOMS id type xs ys zs
1 1 -0.0133197 -0.00681611 0.0175398
2 1 0.0902642 0.00304156 0.0125421
3 1 -0.00719745 0.00580074 0.0977051
4 1 0.0967357 -0.00202618 0.0929026
ITEM: TIMESTEP
50
ITEM: NUMBER OF ATOMS
4
ITEM: BOX BOUNDS pp pp pp
0.0000000000000000e+00 1.4500000000000000e+01
0.0000000000000000e+00 1.4500000000000000e+01
0.0000000000000000e+00 1.4500000000000000e+01
ITEM: ATOMS id type xs ys zs
1 1 -0.00970866 -0.0103312 0.0131687
2 1 0.0879526 0.0048029 0.00470833
3 1 -0.00428844 0.00930342 0.105913
4 1 0.0925273 -0.00377516 0.0968998
ITEM: TIMESTEP
60
ITEM: NUMBER OF ATOMS
4
ITEM: BOX BOUNDS pp pp pp
0.0000000000000000e+00 1.4500000000000000e+01
0.0000000000000000e+00 1.4500000000000000e+01
0.0000000000000000e+00 1.4500000000000000e+01
ITEM: ATOMS id type xs ys zs
1 1 -0.00495159 -0.0147467 0.0081413
2 1 0.0829112 0.00756952 -0.00262741
3 1 0.000967891 0.013692 0.112832
4 1 0.0875552 -0.00651482 0.102344
ITEM: TIMESTEP
70
ITEM: NUMBER OF ATOMS
4
ITEM: BOX BOUNDS pp pp pp
0.0000000000000000e+00 1.4500000000000000e+01
0.0000000000000000e+00 1.4500000000000000e+01
0.0000000000000000e+00 1.4500000000000000e+01
ITEM: ATOMS id type xs ys zs
1 1 -0.00274463 -0.0197722 0.00678113
2 1 0.0792397 0.0116719 -0.00613728
3 1 0.00416078 0.0186967 0.114905
4 1 0.0858269 -0.0105964 0.105141
ITEM: TIMESTEP
80
ITEM: NUMBER OF ATOMS
4
ITEM: BOX BOUNDS pp pp pp
0.0000000000000000e+00 1.4500000000000000e+01
0.0000000000000000e+00 1.4500000000000000e+01
0.0000000000000000e+00 1.4500000000000000e+01
ITEM: ATOMS id type xs ys zs
1 1 -0.00418148 -0.0252196 0.0114007
2 1 0.0779937 0.017348 -0.00313265
3 1 0.0042641 0.0240617 0.109338
4 1 0.0884064 -0.0161901 0.103083
ITEM: TIMESTEP
90
ITEM: NUMBER OF ATOMS
4
ITEM: BOX BOUNDS pp pp pp
0.0000000000000000e+00 1.4500000000000000e+01
0.0000000000000000e+00 1.4500000000000000e+01
0.0000000000000000e+00 1.4500000000000000e+01
ITEM: ATOMS id type xs ys zs
1 1 -0.00929454 -0.0315162 0.0173283
2 1 0.0804176 0.0239025 0.00156851
3 1 0.000648366 0.0301322 0.102342
4 1 0.0947113 -0.0225185 0.0994505
ITEM: TIMESTEP
100
ITEM: NUMBER OF ATOMS
4
ITEM: BOX BOUNDS pp pp pp
0.0000000000000000e+00 1.4500000000000000e+01
0.0000000000000000e+00 1.4500000000000000e+01
0.0000000000000000e+00 1.4500000000000000e+01
ITEM: ATOMS id type xs ys zs
1 1 -0.0111409 -0.0365667 0.0258295
2 1 0.0871481 0.0285828 0.00160886
3 1 -0.00627895 0.0351602 0.101336
4 1 0.0967545 -0.0271763 0.0919152
ITEM: TIMESTEP
110
ITEM: NUMBER OF ATOMS
4
ITEM: BOX BOUNDS pp pp pp
0.0000000000000000e+00 1.4500000000000000e+01
0.0000000000000000e+00 1.4500000000000000e+01
0.0000000000000000e+00 1.4500000000000000e+01
ITEM: ATOMS id type xs ys zs
1 1 -0.0158319 -0.0392053 0.0277733
2 1 0.0840158 0.0298916 0.00834664
3 1 -0.00163407 0.0360385 0.0950269
4 1 0.099933 -0.0267248 0.0895429
ITEM: TIMESTEP
120
ITEM: NUMBER OF ATOMS
4
ITEM: BOX BOUNDS pp pp pp
0.0000000000000000e+00 1.4500000000000000e+01
0.0000000000000000e+00 1.4500000000000000e+01
0.0000000000000000e+00 1.4500000000000000e+01
ITEM: ATOMS id type xs ys zs
1 1 -0.00937295 -0.0387989 0.0307256
2 1 0.0845731 0.0277619 0.00560623
3 1 -0.0055375 0.038575 0.0990155
4 1 0.0968201 -0.0275379 0.0853423
ITEM: TIMESTEP
130
ITEM: NUMBER OF ATOMS
4
ITEM: BOX BOUNDS pp pp pp
0.0000000000000000e+00 1.4500000000000000e+01
0.0000000000000000e+00 1.4500000000000000e+01
0.0000000000000000e+00 1.4500000000000000e+01
ITEM: ATOMS id type xs ys zs
1 1 -0.0143075 -0.0412124 0.0280819
2 1 0.0810439 0.0282634 0.00595588
3 1 -0.000136525 0.0387178 0.098134
4 1 0.0998829 -0.0257689 0.0885179
ITEM: TIMESTEP
140
ITEM: NUMBER OF ATOMS
4
ITEM: BOX BOUNDS pp pp pp
0.0000000000000000e+00 1.4500000000000000e+01
0.0000000000000000e+00 1.4500000000000000e+01
0.0000000000000000e+00 1.4500000000000000e+01
ITEM: ATOMS id type xs ys zs
1 1 -0.008095 -0.0374864 0.0260015
2 1 0.0766897 0.023371 -0.000553045
3 1 -0.00142898 0.0394306 0.104414
4 1 0.099317 -0.0253153 0.0908275
ITEM: TIMESTEP
150
ITEM: NUMBER OF ATOMS
4
ITEM: BOX BOUNDS pp pp pp
0.0000000000000000e+00 1.4500000000000000e+01
0.0000000000000000e+00 1.4500000000000000e+01
0.0000000000000000e+00 1.4500000000000000e+01
ITEM: ATOMS id type xs ys zs
1 1 -0.0106682 -0.0335896 0.0193724
2 1 0.0711873 0.0180813 -0.00490115
3 1 0.00707066 0.0331525 0.107267
4 1 0.098893 -0.0176443 0.0989511
ITEM: TIMESTEP
160
ITEM: NUMBER OF ATOMS
4
ITEM: BOX BOUNDS pp pp pp
0.0000000000000000e+00 1.4500000000000000e+01
0.0000000000000000e+00 1.4500000000000000e+01
0.0000000000000000e+00 1.4500000000000000e+01
ITEM: ATOMS id type xs ys zs
1 1 -0.0105346 -0.0282534 0.0177479
2 1 0.0697755 0.0118122 -0.0087569
3 1 0.0131204 0.0257378 0.111076
4 1 0.0941214 -0.00929653 0.100623
ITEM: TIMESTEP
170
ITEM: NUMBER OF ATOMS
4
ITEM: BOX BOUNDS pp pp pp
0.0000000000000000e+00 1.4500000000000000e+01
0.0000000000000000e+00 1.4500000000000000e+01
0.0000000000000000e+00 1.4500000000000000e+01
ITEM: ATOMS id type xs ys zs
1 1 -0.0116167 -0.023319 0.0201079
2 1 0.0711123 0.0065209 -0.00604911
3 1 0.0151856 0.0190854 0.11091
4 1 0.0918015 -0.00228736 0.0957209
ITEM: TIMESTEP
180
ITEM: NUMBER OF ATOMS
4
ITEM: BOX BOUNDS pp pp pp
0.0000000000000000e+00 1.4500000000000000e+01
0.0000000000000000e+00 1.4500000000000000e+01
0.0000000000000000e+00 1.4500000000000000e+01
ITEM: ATOMS id type xs ys zs
1 1 -0.0196815 -0.0203953 0.0210168
2 1 0.0764282 0.0024847 -0.00499721
3 1 0.00923766 0.0147056 0.112893
4 1 0.100498 0.00320504 0.0917772
ITEM: TIMESTEP
190
ITEM: NUMBER OF ATOMS
4
ITEM: BOX BOUNDS pp pp pp
0.0000000000000000e+00 1.4500000000000000e+01
0.0000000000000000e+00 1.4500000000000000e+01
0.0000000000000000e+00 1.4500000000000000e+01
ITEM: ATOMS id type xs ys zs
1 1 -0.0248461 -0.0172593 0.0238566
2 1 0.0789751 -0.000715081 -0.000384581
3 1 0.00320635 0.0106367 0.110853
4 1 0.109147 0.00733773 0.086365
ITEM: TIMESTEP
200
ITEM: NUMBER OF ATOMS
4
ITEM: BOX BOUNDS pp pp pp
0.0000000000000000e+00 1.4500000000000000e+01
0.0000000000000000e+00 1.4500000000000000e+01
0.0000000000000000e+00 1.4500000000000000e+01
ITEM: ATOMS id type xs ys zs
1 1 -0.0286986 -0.0145694 0.024486
2 1 0.0772018 -0.00411885 0.00379265
3 1 0.00136101 0.00708475 0.108036
4 1 0.116619 0.0116035 0.0843754
ITEM: TIMESTEP
210
ITEM: NUMBER OF ATOMS
4
ITEM: BOX BOUNDS pp pp pp
0.0000000000000000e+00 1.4500000000000000e+01
0.0000000000000000e+00 1.4500000000000000e+01
0.0000000000000000e+00 1.4500000000000000e+01
ITEM: ATOMS id type xs ys zs
1 1 -0.0327529 -0.0127598 0.0210371
2 1 0.0751998 -0.00885786 6.08124e-05
3 1 0.00623321 0.00536098 0.111379
4 1 0.117803 0.0162567 0.0882125
ITEM: TIMESTEP
220
ITEM: NUMBER OF ATOMS
4
ITEM: BOX BOUNDS pp pp pp
0.0000000000000000e+00 1.4500000000000000e+01
0.0000000000000000e+00 1.4500000000000000e+01
0.0000000000000000e+00 1.4500000000000000e+01
ITEM: ATOMS id type xs ys zs
1 1 -0.0352636 -0.0111505 0.0161919
2 1 0.0713235 -0.0138657 -0.00467005
3 1 0.016379 0.00438451 0.11522
4 1 0.114044 0.0206317 0.0939474
ITEM: TIMESTEP
230
ITEM: NUMBER OF ATOMS
4
ITEM: BOX BOUNDS pp pp pp
0.0000000000000000e+00 1.4500000000000000e+01
0.0000000000000000e+00 1.4500000000000000e+01
0.0000000000000000e+00 1.4500000000000000e+01
ITEM: ATOMS id type xs ys zs
1 1 -0.0344496 -0.00921982 0.0136864
2 1 0.0661854 -0.0175316 -0.0047793
3 1 0.025015 0.00267897 0.115198
4 1 0.109732 0.0240725 0.0965844
ITEM: TIMESTEP
240
ITEM: NUMBER OF ATOMS
4
ITEM: BOX BOUNDS pp pp pp
0.0000000000000000e+00 1.4500000000000000e+01
0.0000000000000000e+00 1.4500000000000000e+01
0.0000000000000000e+00 1.4500000000000000e+01
ITEM: ATOMS id type xs ys zs
1 1 -0.0310958 -0.00674239 0.0160771
2 1 0.066027 -0.0198198 -0.00543545
3 1 0.023811 0.000317256 0.117906
4 1 0.10774 0.026245 0.0921417
ITEM: TIMESTEP
250
ITEM: NUMBER OF ATOMS
4
ITEM: BOX BOUNDS pp pp pp
0.0000000000000000e+00 1.4500000000000000e+01
0.0000000000000000e+00 1.4500000000000000e+01
0.0000000000000000e+00 1.4500000000000000e+01
ITEM: ATOMS id type xs ys zs
1 1 -0.0268114 -0.00394186 0.0225116
2 1 0.0687918 -0.0204187 -0.00289252
3 1 0.0163763 -0.00332671 0.118497
4 1 0.108126 0.0276873 0.0825731
ITEM: TIMESTEP
260
ITEM: NUMBER OF ATOMS
4
ITEM: BOX BOUNDS pp pp pp
0.0000000000000000e+00 1.4500000000000000e+01
0.0000000000000000e+00 1.4500000000000000e+01
0.0000000000000000e+00 1.4500000000000000e+01
ITEM: ATOMS id type xs ys zs
1 1 -0.0221559 -0.000583245 0.0300775
2 1 0.0719564 -0.0206503 0.00222037
3 1 0.00951326 -0.00741838 0.11643
4 1 0.107169 0.0286519 0.0719617
ITEM: TIMESTEP
270
ITEM: NUMBER OF ATOMS
4
ITEM: BOX BOUNDS pp pp pp
0.0000000000000000e+00 1.4500000000000000e+01
0.0000000000000000e+00 1.4500000000000000e+01
0.0000000000000000e+00 1.4500000000000000e+01
ITEM: ATOMS id type xs ys zs
1 1 -0.0175518 0.00418558 0.0351743
2 1 0.074716 -0.0234683 0.00440213
3 1 0.0067099 -0.0111448 0.116706
4 1 0.102609 0.0304275 0.0644073
ITEM: TIMESTEP
280
ITEM: NUMBER OF ATOMS
4
ITEM: BOX BOUNDS pp pp pp
0.0000000000000000e+00 1.4500000000000000e+01
0.0000000000000000e+00 1.4500000000000000e+01
0.0000000000000000e+00 1.4500000000000000e+01
ITEM: ATOMS id type xs ys zs
1 1 -0.023263 0.00867835 0.0327576
2 1 0.0737836 -0.0303339 0.00553294
3 1 0.0125286 -0.0143545 0.116709
4 1 0.103434 0.03601 0.0656897
ITEM: TIMESTEP
290
ITEM: NUMBER OF ATOMS
4
ITEM: BOX BOUNDS pp pp pp
0.0000000000000000e+00 1.4500000000000000e+01
0.0000000000000000e+00 1.4500000000000000e+01
0.0000000000000000e+00 1.4500000000000000e+01
ITEM: ATOMS id type xs ys zs
1 1 -0.0233827 0.0147164 0.0283694
2 1 0.0740433 -0.0398431 -0.00104338
3 1 0.0204858 -0.0153763 0.123114
4 1 0.0953363 0.0405031 0.0702498
ITEM: TIMESTEP
300
ITEM: NUMBER OF ATOMS
4
ITEM: BOX BOUNDS pp pp pp
0.0000000000000000e+00 1.4500000000000000e+01
0.0000000000000000e+00 1.4500000000000000e+01
0.0000000000000000e+00 1.4500000000000000e+01
ITEM: ATOMS id type xs ys zs
1 1 -0.0246059 0.0171373 0.0229449
2 1 0.0684774 -0.0443345 0.00172004
3 1 0.0313375 -0.016675 0.120409
4 1 0.0912738 0.0438721 0.075616
ITEM: TIMESTEP
310
ITEM: NUMBER OF ATOMS
4
ITEM: BOX BOUNDS pp pp pp
0.0000000000000000e+00 1.4500000000000000e+01
0.0000000000000000e+00 1.4500000000000000e+01
0.0000000000000000e+00 1.4500000000000000e+01
ITEM: ATOMS id type xs ys zs
1 1 -0.0186001 0.0178462 0.0194714
2 1 0.060858 -0.047009 0.00156027
3 1 0.039071 -0.0180797 0.122107
4 1 0.0851539 0.0472425 0.0775508
ITEM: TIMESTEP
320
ITEM: NUMBER OF ATOMS
4
ITEM: BOX BOUNDS pp pp pp
0.0000000000000000e+00 1.4500000000000000e+01
0.0000000000000000e+00 1.4500000000000000e+01
0.0000000000000000e+00 1.4500000000000000e+01
ITEM: ATOMS id type xs ys zs
1 1 -0.0144404 0.0179234 0.0146586
2 1 0.0530613 -0.0474434 0.00689312
3 1 0.0449736 -0.0237714 0.121388
4 1 0.0828882 0.0532914 0.0777499
ITEM: TIMESTEP
330
ITEM: NUMBER OF ATOMS
4
ITEM: BOX BOUNDS pp pp pp
0.0000000000000000e+00 1.4500000000000000e+01
0.0000000000000000e+00 1.4500000000000000e+01
0.0000000000000000e+00 1.4500000000000000e+01
ITEM: ATOMS id type xs ys zs
1 1 0.990339 0.0207025 0.0133645
2 1 0.0466795 0.948663 0.0151046
3 1 0.0493469 0.968402 0.115867
4 1 0.080117 0.0622319 0.0763533
ITEM: TIMESTEP
340
ITEM: NUMBER OF ATOMS
4
ITEM: BOX BOUNDS pp pp pp
0.0000000000000000e+00 1.4500000000000000e+01
0.0000000000000000e+00 1.4500000000000000e+01
0.0000000000000000e+00 1.4500000000000000e+01
ITEM: ATOMS id type xs ys zs
1 1 0.994676 0.0288695 0.0128635
2 1 0.0440977 0.945248 0.0244911
3 1 0.0547125 0.961002 0.111971
4 1 0.0729968 0.0648807 0.0713638
ITEM: TIMESTEP
350
ITEM: NUMBER OF ATOMS
4
ITEM: BOX BOUNDS pp pp pp
0.0000000000000000e+00 1.4500000000000000e+01
0.0000000000000000e+00 1.4500000000000000e+01
0.0000000000000000e+00 1.4500000000000000e+01
ITEM: ATOMS id type xs ys zs
1 1 1.00063 0.0354915 0.016986
2 1 0.0424447 0.939591 0.02946
3 1 0.0581413 0.960534 0.107418
4 1 0.0652643 0.0643837 0.0668261
ITEM: TIMESTEP
360
ITEM: NUMBER OF ATOMS
4
ITEM: BOX BOUNDS pp pp pp
0.0000000000000000e+00 1.4500000000000000e+01
0.0000000000000000e+00 1.4500000000000000e+01
0.0000000000000000e+00 1.4500000000000000e+01
ITEM: ATOMS id type xs ys zs
1 1 1.00205 0.0397226 0.0177738
2 1 0.0396006 0.934592 0.0275215
3 1 0.0630537 0.963984 0.109349
4 1 0.0617756 0.0617006 0.0660452
ITEM: TIMESTEP
370
ITEM: NUMBER OF ATOMS
4
ITEM: BOX BOUNDS pp pp pp
0.0000000000000000e+00 1.4500000000000000e+01
0.0000000000000000e+00 1.4500000000000000e+01
0.0000000000000000e+00 1.4500000000000000e+01
ITEM: ATOMS id type xs ys zs
1 1 0.999223 0.0373701 0.0159569
2 1 0.035873 0.93651 0.0225648
3 1 0.0674554 0.971397 0.113343
4 1 0.0639318 0.0547227 0.0688254
ITEM: TIMESTEP
380
ITEM: NUMBER OF ATOMS
4
ITEM: BOX BOUNDS pp pp pp
0.0000000000000000e+00 1.4500000000000000e+01
0.0000000000000000e+00 1.4500000000000000e+01
0.0000000000000000e+00 1.4500000000000000e+01
ITEM: ATOMS id type xs ys zs
1 1 0.99577 0.0284819 0.0161629
2 1 0.0315242 0.938308 0.0165519
3 1 0.0677991 0.980065 0.113614
4 1 0.0713899 0.0531457 0.0743607
ITEM: TIMESTEP
390
ITEM: NUMBER OF ATOMS
4
ITEM: BOX BOUNDS pp pp pp
0.0000000000000000e+00 1.4500000000000000e+01
0.0000000000000000e+00 1.4500000000000000e+01
0.0000000000000000e+00 1.4500000000000000e+01
ITEM: ATOMS id type xs ys zs
1 1 0.989498 0.0212659 0.0149753
2 1 0.0312741 0.945304 0.015729
3 1 0.0671825 0.981405 0.115898
4 1 0.0785281 0.0520249 0.0740871
ITEM: TIMESTEP
400
ITEM: NUMBER OF ATOMS
4
ITEM: BOX BOUNDS pp pp pp
0.0000000000000000e+00 1.4500000000000000e+01
0.0000000000000000e+00 1.4500000000000000e+01
0.0000000000000000e+00 1.4500000000000000e+01
ITEM: ATOMS id type xs ys zs
1 1 0.985325 0.0185061 0.0191185
2 1 0.0345042 0.947321 0.0166888
3 1 0.0615555 0.977061 0.115905
4 1 0.0850985 0.057112 0.0689775
ITEM: TIMESTEP
410
ITEM: NUMBER OF ATOMS
4
ITEM: BOX BOUNDS pp pp pp
0.0000000000000000e+00 1.4500000000000000e+01
0.0000000000000000e+00 1.4500000000000000e+01
0.0000000000000000e+00 1.4500000000000000e+01
ITEM: ATOMS id type xs ys zs
1 1 0.980152 0.023082 0.0240728
2 1 0.0426177 0.946743 0.0193552
3 1 0.0560677 0.969233 0.117764
4 1 0.0876453 0.0609426 0.0594973
ITEM: TIMESTEP
420
ITEM: NUMBER OF ATOMS
4
ITEM: BOX BOUNDS pp pp pp
0.0000000000000000e+00 1.4500000000000000e+01
0.0000000000000000e+00 1.4500000000000000e+01
0.0000000000000000e+00 1.4500000000000000e+01
ITEM: ATOMS id type xs ys zs
1 1 0.980512 0.0294334 0.0327012
2 1 0.0510505 0.942007 0.0205481
3 1 0.0500461 0.966291 0.116202
4 1 0.084874 0.0622682 0.0512382
ITEM: TIMESTEP
430
ITEM: NUMBER OF ATOMS
4
ITEM: BOX BOUNDS pp pp pp
0.0000000000000000e+00 1.4500000000000000e+01
0.0000000000000000e+00 1.4500000000000000e+01
0.0000000000000000e+00 1.4500000000000000e+01
ITEM: ATOMS id type xs ys zs
1 1 0.981739 0.0375198 0.0386165
2 1 0.058578 0.940463 0.0209128
3 1 0.047891 0.965049 0.11644
4 1 0.0782744 0.0569687 0.0447205
ITEM: TIMESTEP
440
ITEM: NUMBER OF ATOMS
4
ITEM: BOX BOUNDS pp pp pp
0.0000000000000000e+00 1.4500000000000000e+01
0.0000000000000000e+00 1.4500000000000000e+01
0.0000000000000000e+00 1.4500000000000000e+01
ITEM: ATOMS id type xs ys zs
1 1 0.987083 0.0376991 0.0470398
2 1 0.0625585 0.939633 0.020229
3 1 0.041805 0.963838 0.117454
4 1 0.0750358 0.0588306 0.035967
ITEM: TIMESTEP
450
ITEM: NUMBER OF ATOMS
4
ITEM: BOX BOUNDS pp pp pp
0.0000000000000000e+00 1.4500000000000000e+01
0.0000000000000000e+00 1.4500000000000000e+01
0.0000000000000000e+00 1.4500000000000000e+01
ITEM: ATOMS id type xs ys zs
1 1 0.988011 0.0370104 0.0594273
2 1 0.069006 0.939334 0.0188954
3 1 0.0341074 0.967483 0.114453
4 1 0.0753588 0.056173 0.0279136
ITEM: TIMESTEP
460
ITEM: NUMBER OF ATOMS
4
ITEM: BOX BOUNDS pp pp pp
0.0000000000000000e+00 1.4500000000000000e+01
0.0000000000000000e+00 1.4500000000000000e+01
0.0000000000000000e+00 1.4500000000000000e+01
ITEM: ATOMS id type xs ys zs
1 1 0.988404 0.0329474 0.0702905
2 1 0.0723305 0.947541 0.0198982
3 1 0.0273709 0.969228 0.112187
4 1 0.0783771 0.0502828 0.0183138
ITEM: TIMESTEP
470
ITEM: NUMBER OF ATOMS
4
ITEM: BOX BOUNDS pp pp pp
0.0000000000000000e+00 1.4500000000000000e+01
0.0000000000000000e+00 1.4500000000000000e+01
0.0000000000000000e+00 1.4500000000000000e+01
ITEM: ATOMS id type xs ys zs
1 1 0.98518 0.0347948 0.0781792
2 1 0.0763331 0.954502 0.0207133
3 1 0.0262122 0.969899 0.108455
4 1 0.0787576 0.0408045 0.0133425
ITEM: TIMESTEP
480
ITEM: NUMBER OF ATOMS
4
ITEM: BOX BOUNDS pp pp pp
0.0000000000000000e+00 1.4500000000000000e+01
0.0000000000000000e+00 1.4500000000000000e+01
0.0000000000000000e+00 1.4500000000000000e+01
ITEM: ATOMS id type xs ys zs
1 1 0.986466 0.038101 0.0775263
2 1 0.075008 0.96002 0.0248575
3 1 0.0281246 0.963998 0.109166
4 1 0.0768842 0.037881 0.00913957
ITEM: TIMESTEP
490
ITEM: NUMBER OF ATOMS
4
ITEM: BOX BOUNDS pp pp pp
0.0000000000000000e+00 1.4500000000000000e+01
0.0000000000000000e+00 1.4500000000000000e+01
0.0000000000000000e+00 1.4500000000000000e+01
ITEM: ATOMS id type xs ys zs
1 1 0.986925 0.0462588 0.0739676
2 1 0.0760407 0.955447 0.0275491
3 1 0.0338536 0.958851 0.107992
4 1 0.0696636 0.039443 0.0111806
ITEM: TIMESTEP
500
ITEM: NUMBER OF ATOMS
4
ITEM: BOX BOUNDS pp pp pp
0.0000000000000000e+00 1.4500000000000000e+01
0.0000000000000000e+00 1.4500000000000000e+01
0.0000000000000000e+00 1.4500000000000000e+01
ITEM: ATOMS id type xs ys zs
1 1 0.991786 0.0495502 0.0682087
2 1 0.0750301 0.948934 0.0296209
3 1 0.0380316 0.955326 0.109416
4 1 0.0616353 0.0461901 0.0134444
ITEM: TIMESTEP
510
ITEM: NUMBER OF ATOMS
4
ITEM: BOX BOUNDS pp pp pp
0.0000000000000000e+00 1.4500000000000000e+01
0.0000000000000000e+00 1.4500000000000000e+01
0.0000000000000000e+00 1.4500000000000000e+01
ITEM: ATOMS id type xs ys zs
1 1 0.997779 0.045272 0.0648184
2 1 0.0721698 0.945204 0.0288548
3 1 0.0398449 0.95914 0.110328
4 1 0.0566887 0.0503844 0.0166888
ITEM: TIMESTEP
520
ITEM: NUMBER OF ATOMS
4
ITEM: BOX BOUNDS pp pp pp
0.0000000000000000e+00 1.4500000000000000e+01
0.0000000000000000e+00 1.4500000000000000e+01
0.0000000000000000e+00 1.4500000000000000e+01
ITEM: ATOMS id type xs ys zs
1 1 0.99536 0.0407609 0.0685272
2 1 0.0718232 0.94056 0.022783
3 1 0.0398425 0.9663 0.113879
4 1 0.0594571 0.0523794 0.0155
ITEM: TIMESTEP
530
ITEM: NUMBER OF ATOMS
4
ITEM: BOX BOUNDS pp pp pp
0.0000000000000000e+00 1.4500000000000000e+01
0.0000000000000000e+00 1.4500000000000000e+01
0.0000000000000000e+00 1.4500000000000000e+01
ITEM: ATOMS id type xs ys zs
1 1 0.989557 0.0325197 0.0735954
2 1 0.0681801 0.942779 0.0173055
3 1 0.0409271 0.973497 0.118117
4 1 0.0678189 0.0512046 0.0116722
ITEM: TIMESTEP
540
ITEM: NUMBER OF ATOMS
4
ITEM: BOX BOUNDS pp pp pp
0.0000000000000000e+00 1.4500000000000000e+01
0.0000000000000000e+00 1.4500000000000000e+01
0.0000000000000000e+00 1.4500000000000000e+01
ITEM: ATOMS id type xs ys zs
1 1 0.980312 0.0265379 0.0767503
2 1 0.0636887 0.947825 0.0132455
3 1 0.0464341 0.980523 0.118922
4 1 0.0760483 0.0451136 0.0117718
ITEM: TIMESTEP
550
ITEM: NUMBER OF ATOMS
4
ITEM: BOX BOUNDS pp pp pp
0.0000000000000000e+00 1.4500000000000000e+01
0.0000000000000000e+00 1.4500000000000000e+01
0.0000000000000000e+00 1.4500000000000000e+01
ITEM: ATOMS id type xs ys zs
1 1 0.976036 0.0239042 0.0720922
2 1 0.0579197 0.951878 0.0106828
3 1 0.0545173 0.982616 0.124792
4 1 0.0780096 0.0416019 0.0131228
ITEM: TIMESTEP
560
ITEM: NUMBER OF ATOMS
4
ITEM: BOX BOUNDS pp pp pp
0.0000000000000000e+00 1.4500000000000000e+01
0.0000000000000000e+00 1.4500000000000000e+01
0.0000000000000000e+00 1.4500000000000000e+01
ITEM: ATOMS id type xs ys zs
1 1 0.970133 0.0249502 0.068345
2 1 0.0547704 0.950045 0.010285
3 1 0.0630498 0.983749 0.124666
4 1 0.0785293 0.0412552 0.0173936
ITEM: TIMESTEP
570
ITEM: NUMBER OF ATOMS
4
ITEM: BOX BOUNDS pp pp pp
0.0000000000000000e+00 1.4500000000000000e+01
0.0000000000000000e+00 1.4500000000000000e+01
0.0000000000000000e+00 1.4500000000000000e+01
ITEM: ATOMS id type xs ys zs
1 1 0.973305 0.0221447 0.065254
2 1 0.0482777 0.946988 0.0110411
3 1 0.0660841 0.98394 0.127703
4 1 0.0788165 0.0469276 0.016691
ITEM: TIMESTEP
580
ITEM: NUMBER OF ATOMS
4
ITEM: BOX BOUNDS pp pp pp
0.0000000000000000e+00 1.4500000000000000e+01
0.0000000000000000e+00 1.4500000000000000e+01
0.0000000000000000e+00 1.4500000000000000e+01
ITEM: ATOMS id type xs ys zs
1 1 0.971453 0.0220163 0.0699712
2 1 0.0474866 0.939986 0.0102084
3 1 0.065499 0.987771 0.121388
4 1 0.0820436 0.0502273 0.0191218
ITEM: TIMESTEP
590
ITEM: NUMBER OF ATOMS
4
ITEM: BOX BOUNDS pp pp pp
0.0000000000000000e+00 1.4500000000000000e+01
0.0000000000000000e+00 1.4500000000000000e+01
0.0000000000000000e+00 1.4500000000000000e+01
ITEM: ATOMS id type xs ys zs
1 1 0.9786 0.0176201 0.0719183
2 1 0.0436503 0.93949 0.00987877
3 1 0.062163 0.990756 0.121135
4 1 0.0820693 0.0521333 0.017758
ITEM: TIMESTEP
600
ITEM: NUMBER OF ATOMS
4
ITEM: BOX BOUNDS pp pp pp
0.0000000000000000e+00 1.4500000000000000e+01
0.0000000000000000e+00 1.4500000000000000e+01
0.0000000000000000e+00 1.4500000000000000e+01
ITEM: ATOMS id type xs ys zs
1 1 0.97789 0.0149394 0.0780538
2 1 0.0445013 0.942668 0.00734713
3 1 0.0603379 0.99505 0.119189
4 1 0.0837532 0.0473429 0.0160994
ITEM: TIMESTEP
610
ITEM: NUMBER OF ATOMS
4
ITEM: BOX BOUNDS pp pp pp
0.0000000000000000e+00 1.4500000000000000e+01
0.0000000000000000e+00 1.4500000000000000e+01
0.0000000000000000e+00 1.4500000000000000e+01
ITEM: ATOMS id type xs ys zs
1 1 0.977018 0.0109776 0.0796711
2 1 0.0437596 0.94933 0.00332552
3 1 0.0627051 1.00203 0.120647
4 1 0.0829998 0.037661 0.0170461
ITEM: TIMESTEP
620
ITEM: NUMBER OF ATOMS
4
ITEM: BOX BOUNDS pp pp pp
0.0000000000000000e+00 1.4500000000000000e+01
0.0000000000000000e+00 1.4500000000000000e+01
0.0000000000000000e+00 1.4500000000000000e+01
ITEM: ATOMS id type xs ys zs
1 1 0.971139 0.00230281 0.0797873
2 1 0.0386518 0.957919 0.00352993
3 1 0.0674673 1.00863 0.122089
4 1 0.089225 0.0311449 0.0152831
ITEM: TIMESTEP
630
ITEM: NUMBER OF ATOMS
4
ITEM: BOX BOUNDS pp pp pp
0.0000000000000000e+00 1.4500000000000000e+01
0.0000000000000000e+00 1.4500000000000000e+01
0.0000000000000000e+00 1.4500000000000000e+01
ITEM: ATOMS id type xs ys zs
1 1 0.970926 -0.00596145 0.0768023
2 1 0.0299983 0.96387 0.00597963
3 1 0.0717111 1.0148 0.119646
4 1 0.0938471 0.0272949 0.0182622
ITEM: TIMESTEP
640
ITEM: NUMBER OF ATOMS
4
ITEM: BOX BOUNDS pp pp pp
0.0000000000000000e+00 1.4500000000000000e+01
0.0000000000000000e+00 1.4500000000000000e+01
0.0000000000000000e+00 1.4500000000000000e+01
ITEM: ATOMS id type xs ys zs
1 1 0.97681 0.988456 0.0740658
2 1 0.0198547 0.966003 0.00654282
3 1 0.0734152 0.020173 0.115762
4 1 0.0964026 0.0253676 0.024319
ITEM: TIMESTEP
650
ITEM: NUMBER OF ATOMS
4
ITEM: BOX BOUNDS pp pp pp
0.0000000000000000e+00 1.4500000000000000e+01
0.0000000000000000e+00 1.4500000000000000e+01
0.0000000000000000e+00 1.4500000000000000e+01
ITEM: ATOMS id type xs ys zs
1 1 0.983407 0.986336 0.0768715
2 1 0.0142985 0.967094 0.00544342
3 1 0.0703174 0.0224115 0.109754
4 1 0.0984597 0.0241589 0.0286208
ITEM: TIMESTEP
660
ITEM: NUMBER OF ATOMS
4
ITEM: BOX BOUNDS pp pp pp
0.0000000000000000e+00 1.4500000000000000e+01
0.0000000000000000e+00 1.4500000000000000e+01
0.0000000000000000e+00 1.4500000000000000e+01
ITEM: ATOMS id type xs ys zs
1 1 0.984498 0.985502 0.0871095
2 1 0.0132517 0.967111 -0.00132057
3 1 0.0653804 0.024048 0.108241
4 1 0.103352 0.0233381 0.0266593
ITEM: TIMESTEP
670
ITEM: NUMBER OF ATOMS
4
ITEM: BOX BOUNDS pp pp pp
0.0000000000000000e+00 1.4500000000000000e+01
0.0000000000000000e+00 1.4500000000000000e+01
0.0000000000000000e+00 1.4500000000000000e+01
ITEM: ATOMS id type xs ys zs
1 1 0.985793 0.98522 0.0970524
2 1 0.0165457 0.969375 -0.00658029
3 1 0.0601815 0.0252833 0.107881
4 1 0.103962 0.0201222 0.0223365
ITEM: TIMESTEP
680
ITEM: NUMBER OF ATOMS
4
ITEM: BOX BOUNDS pp pp pp
0.0000000000000000e+00 1.4500000000000000e+01
0.0000000000000000e+00 1.4500000000000000e+01
0.0000000000000000e+00 1.4500000000000000e+01
ITEM: ATOMS id type xs ys zs
1 1 0.98468 0.982519 0.102973
2 1 0.0211549 0.973946 -0.00621702
3 1 0.0578209 0.0276948 0.106594
4 1 0.102827 0.0158407 0.0173402
ITEM: TIMESTEP
690
ITEM: NUMBER OF ATOMS
4
ITEM: BOX BOUNDS pp pp pp
0.0000000000000000e+00 1.4500000000000000e+01
0.0000000000000000e+00 1.4500000000000000e+01
0.0000000000000000e+00 1.4500000000000000e+01
ITEM: ATOMS id type xs ys zs
1 1 0.981112 0.976642 0.103208
2 1 0.0209328 0.976499 -0.00427946
3 1 0.060869 0.0344598 0.108777
4 1 0.103569 0.0123989 0.012984
ITEM: TIMESTEP
700
ITEM: NUMBER OF ATOMS
4
ITEM: BOX BOUNDS pp pp pp
0.0000000000000000e+00 1.4500000000000000e+01
0.0000000000000000e+00 1.4500000000000000e+01
0.0000000000000000e+00 1.4500000000000000e+01
ITEM: ATOMS id type xs ys zs
1 1 0.977484 0.969779 0.0994144
2 1 0.016179 0.978417 0.00280676
3 1 0.0649284 0.0409452 0.108468
4 1 0.107892 0.0108587 0.0100008
ITEM: TIMESTEP
710
ITEM: NUMBER OF ATOMS
4
ITEM: BOX BOUNDS pp pp pp
0.0000000000000000e+00 1.4500000000000000e+01
0.0000000000000000e+00 1.4500000000000000e+01
0.0000000000000000e+00 1.4500000000000000e+01
ITEM: ATOMS id type xs ys zs
1 1 0.977272 0.965804 0.0958482
2 1 0.00936443 0.979485 0.00982497
3 1 0.0666621 0.0439181 0.10568
4 1 0.113184 0.0107928 0.00933659
ITEM: TIMESTEP
720
ITEM: NUMBER OF ATOMS
4
ITEM: BOX BOUNDS pp pp pp
0.0000000000000000e+00 1.4500000000000000e+01
0.0000000000000000e+00 1.4500000000000000e+01
0.0000000000000000e+00 1.4500000000000000e+01
ITEM: ATOMS id type xs ys zs
1 1 0.983366 0.967992 0.0969586
2 1 0.00219298 0.977867 0.007582
3 1 0.0652395 0.0429175 0.104892
4 1 0.115684 0.0112236 0.0112566
ITEM: TIMESTEP
730
ITEM: NUMBER OF ATOMS
4
ITEM: BOX BOUNDS pp pp pp
0.0000000000000000e+00 1.4500000000000000e+01
0.0000000000000000e+00 1.4500000000000000e+01
0.0000000000000000e+00 1.4500000000000000e+01
ITEM: ATOMS id type xs ys zs
1 1 0.99003 0.971298 0.10239
2 1 0.00377871 0.979202 0.00225267
3 1 0.0627868 0.039165 0.101229
4 1 0.109888 0.0103352 0.0148187
ITEM: TIMESTEP
740
ITEM: NUMBER OF ATOMS
4
ITEM: BOX BOUNDS pp pp pp
0.0000000000000000e+00 1.4500000000000000e+01
0.0000000000000000e+00 1.4500000000000000e+01
0.0000000000000000e+00 1.4500000000000000e+01
ITEM: ATOMS id type xs ys zs
1 1 0.996169 0.973785 0.10811
2 1 0.00695245 0.979817 -0.00642327
3 1 0.0629871 0.0381212 0.100514
4 1 0.100374 0.00827678 0.0184882
ITEM: TIMESTEP
750
ITEM: NUMBER OF ATOMS
4
ITEM: BOX BOUNDS pp pp pp
0.0000000000000000e+00 1.4500000000000000e+01
0.0000000000000000e+00 1.4500000000000000e+01
0.0000000000000000e+00 1.4500000000000000e+01
ITEM: ATOMS id type xs ys zs
1 1 1.00256 0.974606 0.106147
2 1 0.0102941 0.981865 -0.00578612
3 1 0.0627442 0.0389162 0.0984867
4 1 0.0908826 0.00461284 0.0218422
ITEM: TIMESTEP
760
ITEM: NUMBER OF ATOMS
4
ITEM: BOX BOUNDS pp pp pp
0.0000000000000000e+00 1.4500000000000000e+01
0.0000000000000000e+00 1.4500000000000000e+01
0.0000000000000000e+00 1.4500000000000000e+01
ITEM: ATOMS id type xs ys zs
1 1 0.997421 0.969103 0.109651
2 1 0.00843794 0.982303 -0.00381566
3 1 0.0643265 0.0454067 0.100463
4 1 0.0962971 0.00318811 0.0143912
ITEM: TIMESTEP
770
ITEM: NUMBER OF ATOMS
4
ITEM: BOX BOUNDS pp pp pp
0.0000000000000000e+00 1.4500000000000000e+01
0.0000000000000000e+00 1.4500000000000000e+01
0.0000000000000000e+00 1.4500000000000000e+01
ITEM: ATOMS id type xs ys zs
1 1 0.994542 0.964304 0.107128
2 1 0.00365209 0.983036 0.00369125
3 1 0.0644872 0.0513395 0.100908
4 1 0.103801 0.00132026 0.00896276
ITEM: TIMESTEP
780
ITEM: NUMBER OF ATOMS
4
ITEM: BOX BOUNDS pp pp pp
0.0000000000000000e+00 1.4500000000000000e+01
0.0000000000000000e+00 1.4500000000000000e+01
0.0000000000000000e+00 1.4500000000000000e+01
ITEM: ATOMS id type xs ys zs
1 1 0.994363 0.961971 0.102789
2 1 -0.00140269 0.983844 0.0125046
3 1 0.0636552 0.0539071 0.0989241
4 1 0.109867 0.0002781 0.00647189
ITEM: TIMESTEP
790
ITEM: NUMBER OF ATOMS
4
ITEM: BOX BOUNDS pp pp pp
0.0000000000000000e+00 1.4500000000000000e+01
0.0000000000000000e+00 1.4500000000000000e+01
0.0000000000000000e+00 1.4500000000000000e+01
ITEM: ATOMS id type xs ys zs
1 1 0.996936 0.96258 0.101741
2 1 -0.00531698 0.982983 0.0136956
3 1 0.0647804 0.0534696 0.0970508
4 1 0.110084 0.000968004 0.00820251
ITEM: TIMESTEP
800
ITEM: NUMBER OF ATOMS
4
ITEM: BOX BOUNDS pp pp pp
0.0000000000000000e+00 1.4500000000000000e+01
0.0000000000000000e+00 1.4500000000000000e+01
0.0000000000000000e+00 1.4500000000000000e+01
ITEM: ATOMS id type xs ys zs
1 1 1.00308 0.965655 0.104031
2 1 -0.00662642 0.981815 0.0076757
3 1 0.0674756 0.0500446 0.0944488
4 1 0.102552 0.00248606 0.0145341
ITEM: TIMESTEP
810