 254 254   0   0
  0.2268316E+02  0.1514622E-08  0.1514622E-08  0.2900000E-08  0.5000000E-15
   1.0000000000000000E-004
  CAR 
 NiAl                                    
      6.47161710    -32.64409851  301     -0.50409619      1.00000000
    -32.644  0.0000E+00  0.0000E+00
    -32.514  0.0000E+00  0.0000E+00
    -32.383  0.0000E+00  0.0000E+00
    -32.253  0.0000E+00  0.0000E+00
    -32.123  0.0000E+00  0.0000E+00
    -31.992  0.0000E+00  0.0000E+00
    -31.862  0.0000E+00  0.0000E+00
    -31.731  0.0000E+00  0.0000E+00
    -31.601  0.0000E+00  0.0000E+00
    -31.471  0.0000E+00  0.0000E+00
    -31.340  0.0000E+00  0.0000E+00
    -31.210  0.0000E+00  0.0000E+00
    -31.079  0.1076E-07  0.1402E-08
    -30.949  0.1373E+00  0.1790E-01
    -30.819  0.1377E+02  0.1813E+01
    -30.688  0.1433E+01  0.2000E+01
    -30.558  0.4228E-05  0.2000E+01
    -30.428  0.0000E+00  0.2000E+01
    -30.297  0.0000E+00  0.2000E+01
    -30.167  0.0000E+00  0.2000E+01
    -30.036  0.0000E+00  0.2000E+01
    -29.906  0.0000E+00  0.2000E+01
    -29.776  0.0000E+00  0.2000E+01
    -29.645  0.0000E+00  0.2000E+01
    -29.515  0.0000E+00  0.2000E+01
    -29.384  0.0000E+00  0.2000E+01
    -29.254  0.0000E+00  0.2000E+01
    -29.124  0.0000E+00  0.2000E+01
    -28.993  0.0000E+00  0.2000E+01
    -28.863  0.0000E+00  0.2000E+01
    -28.733  0.0000E+00  0.2000E+01
    -28.602  0.0000E+00  0.2000E+01
    -28.472  0.0000E+00  0.2000E+01
    -28.341  0.0000E+00  0.2000E+01
    -28.211  0.0000E+00  0.2000E+01
    -28.081  0.0000E+00  0.2000E+01
    -27.950  0.0000E+00  0.2000E+01
    -27.820  0.0000E+00  0.2000E+01
    -27.689  0.0000E+00  0.2000E+01
    -27.559  0.0000E+00  0.2000E+01
    -27.429  0.0000E+00  0.2000E+01
    -27.298  0.0000E+00  0.2000E+01
    -27.168  0.0000E+00  0.2000E+01
    -27.038  0.0000E+00  0.2000E+01
    -26.907  0.0000E+00  0.2000E+01
    -26.777  0.0000E+00  0.2000E+01
    -26.646  0.0000E+00  0.2000E+01
    -26.516  0.0000E+00  0.2000E+01
    -26.386  0.0000E+00  0.2000E+01
    -26.255  0.0000E+00  0.2000E+01
    -26.125  0.0000E+00  0.2000E+01
    -25.994  0.0000E+00  0.2000E+01
    -25.864  0.0000E+00  0.2000E+01
    -25.734  0.0000E+00  0.2000E+01
    -25.603  0.0000E+00  0.2000E+01
    -25.473  0.0000E+00  0.2000E+01
    -25.342  0.0000E+00  0.2000E+01
    -25.212  0.0000E+00  0.2000E+01
    -25.082  0.0000E+00  0.2000E+01
    -24.951  0.0000E+00  0.2000E+01
    -24.821  0.0000E+00  0.2000E+01
    -24.691  0.0000E+00  0.2000E+01
    -24.560  0.0000E+00  0.2000E+01
    -24.430  0.0000E+00  0.2000E+01
    -24.299  0.0000E+00  0.2000E+01
    -24.169  0.0000E+00  0.2000E+01
    -24.039  0.0000E+00  0.2000E+01
    -23.908  0.0000E+00  0.2000E+01
    -23.778  0.0000E+00  0.2000E+01
    -23.647  0.0000E+00  0.2000E+01
    -23.517  0.0000E+00  0.2000E+01
    -23.387  0.0000E+00  0.2000E+01
    -23.256  0.0000E+00  0.2000E+01
    -23.126  0.0000E+00  0.2000E+01
    -22.996  0.0000E+00  0.2000E+01
    -22.865  0.0000E+00  0.2000E+01
    -22.735  0.0000E+00  0.2000E+01
    -22.604  0.0000E+00  0.2000E+01
    -22.474  0.0000E+00  0.2000E+01
    -22.344  0.0000E+00  0.2000E+01
    -22.213  0.0000E+00  0.2000E+01
    -22.083  0.0000E+00  0.2000E+01
    -21.952  0.0000E+00  0.2000E+01
    -21.822  0.0000E+00  0.2000E+01
    -21.692  0.0000E+00  0.2000E+01
    -21.561  0.0000E+00  0.2000E+01
    -21.431  0.0000E+00  0.2000E+01
    -21.301  0.0000E+00  0.2000E+01
    -21.170  0.0000E+00  0.2000E+01
    -21.040  0.0000E+00  0.2000E+01
    -20.909  0.0000E+00  0.2000E+01
    -20.779  0.0000E+00  0.2000E+01
    -20.649  0.0000E+00  0.2000E+01
    -20.518  0.0000E+00  0.2000E+01
    -20.388  0.0000E+00  0.2000E+01
    -20.257  0.0000E+00  0.2000E+01
    -20.127  0.0000E+00  0.2000E+01
    -19.997  0.0000E+00  0.2000E+01
    -19.866  0.0000E+00  0.2000E+01
    -19.736  0.0000E+00  0.2000E+01
    -19.606  0.0000E+00  0.2000E+01
    -19.475  0.0000E+00  0.2000E+01
    -19.345  0.0000E+00  0.2000E+01
    -19.214  0.0000E+00  0.2000E+01
    -19.084  0.0000E+00  0.2000E+01
    -18.954  0.0000E+00  0.2000E+01
    -18.823  0.0000E+00  0.2000E+01
    -18.693  0.0000E+00  0.2000E+01
    -18.562  0.0000E+00  0.2000E+01
    -18.432  0.0000E+00  0.2000E+01
    -18.302  0.0000E+00  0.2000E+01
    -18.171  0.0000E+00  0.2000E+01
    -18.041  0.0000E+00  0.2000E+01
    -17.911  0.0000E+00  0.2000E+01
    -17.780  0.0000E+00  0.2000E+01
    -17.650  0.0000E+00  0.2000E+01
    -17.519  0.0000E+00  0.2000E+01
    -17.389  0.0000E+00  0.2000E+01
    -17.259  0.0000E+00  0.2000E+01
    -17.128  0.0000E+00  0.2000E+01
    -16.998  0.0000E+00  0.2000E+01
    -16.867  0.0000E+00  0.2000E+01
    -16.737  0.0000E+00  0.2000E+01
    -16.607  0.0000E+00  0.2000E+01
    -16.476  0.0000E+00  0.2000E+01
    -16.346  0.0000E+00  0.2000E+01
    -16.215  0.0000E+00  0.2000E+01
    -16.085  0.0000E+00  0.2000E+01
    -15.955  0.0000E+00  0.2000E+01
    -15.824  0.0000E+00  0.2000E+01
    -15.694  0.0000E+00  0.2000E+01
    -15.564  0.0000E+00  0.2000E+01
    -15.433  0.0000E+00  0.2000E+01
    -15.303  0.0000E+00  0.2000E+01
    -15.172  0.0000E+00  0.2000E+01
    -15.042  0.0000E+00  0.2000E+01
    -14.912  0.3394E-09  0.2000E+01
    -14.781  0.2851E-01  0.2004E+01
    -14.651  0.1200E+02  0.3568E+01
    -14.520  0.3310E+01  0.4000E+01
    -14.390  0.5877E-04  0.4000E+01
    -14.260  0.0000E+00  0.4000E+01
    -14.129  0.0000E+00  0.4000E+01
    -13.999  0.0000E+00  0.4000E+01
    -13.869  0.0000E+00  0.4000E+01
    -13.738  0.0000E+00  0.4000E+01
    -13.608  0.0000E+00  0.4000E+01
    -13.477  0.0000E+00  0.4000E+01
    -13.347  0.0000E+00  0.4000E+01
    -13.217  0.0000E+00  0.4000E+01
    -13.086  0.0000E+00  0.4000E+01
    -12.956  0.0000E+00  0.4000E+01
    -12.825  0.0000E+00  0.4000E+01
    -12.695  0.0000E+00  0.4000E+01
    -12.565  0.0000E+00  0.4000E+01
    -12.434  0.0000E+00  0.4000E+01
    -12.304  0.0000E+00  0.4000E+01
    -12.174  0.0000E+00  0.4000E+01
    -12.043  0.0000E+00  0.4000E+01
    -11.913  0.0000E+00  0.4000E+01
    -11.782  0.0000E+00  0.4000E+01
    -11.652  0.0000E+00  0.4000E+01
    -11.522  0.0000E+00  0.4000E+01
    -11.391  0.0000E+00  0.4000E+01
    -11.261  0.0000E+00  0.4000E+01
    -11.130  0.0000E+00  0.4000E+01
    -11.000  0.0000E+00  0.4000E+01
    -10.870  0.0000E+00  0.4000E+01
    -10.739  0.0000E+00  0.4000E+01
    -10.609  0.0000E+00  0.4000E+01
    -10.479  0.0000E+00  0.4000E+01
    -10.348  0.0000E+00  0.4000E+01
    -10.218  0.0000E+00  0.4000E+01
    -10.087  0.0000E+00  0.4000E+01
     -9.957  0.0000E+00  0.4000E+01
     -9.827  0.1418E-08  0.4000E+01
     -9.696  0.8005E-01  0.4010E+01
     -9.566  0.2489E+02  0.7256E+01
     -9.435  0.5710E+01  0.8000E+01
     -9.305  0.7216E-04  0.8000E+01
     -9.175  0.3458E-02  0.8000E+01
     -9.044  0.7603E+01  0.8992E+01
     -8.914  0.1179E+02  0.1053E+02
     -8.784  0.2079E+02  0.1324E+02
     -8.653  0.1997E+01  0.1350E+02
     -8.523  0.2396E+01  0.1381E+02
     -8.392  0.9315E+01  0.1503E+02
     -8.262  0.3583E+02  0.1970E+02
     -8.132  0.1962E+02  0.2226E+02
     -8.001  0.5691E+01  0.2300E+02
     -7.871  0.9804E+01  0.2428E+02
     -7.740  0.1393E+02  0.2609E+02
     -7.610  0.2321E+02  0.2912E+02
     -7.480  0.5349E+02  0.3610E+02
     -7.349  0.1843E+02  0.3850E+02
     -7.219  0.2318E-01  0.3850E+02
     -7.088  0.2426E+02  0.4167E+02
     -6.958  0.6679E+02  0.5038E+02
     -6.828  0.2008E+02  0.5299E+02
     -6.697  0.7200E+01  0.5393E+02
     -6.567  0.2505E+02  0.5720E+02
     -6.437  0.4019E+02  0.6244E+02
     -6.306  0.5905E+02  0.7014E+02
     -6.176  0.3751E+02  0.7503E+02
     -6.045  0.3898E+02  0.8011E+02
     -5.915  0.7579E+02  0.8999E+02
     -5.785  0.4598E+02  0.9599E+02
     -5.654  0.1880E+01  0.9623E+02
     -5.524  0.2116E+02  0.9899E+02
     -5.393  0.8358E+02  0.1099E+03
     -5.263  0.1072E+03  0.1239E+03
     -5.133  0.6224E+02  0.1320E+03
     -5.002  0.1073E+03  0.1460E+03
     -4.872  0.8538E+02  0.1571E+03
     -4.742  0.6593E+02  0.1657E+03
     -4.611  0.2551E+03  0.1990E+03
     -4.481  0.1808E+03  0.2225E+03
     -4.350  0.2357E+03  0.2533E+03
     -4.220  0.2860E+03  0.2906E+03
     -4.090  0.2602E+03  0.3245E+03
     -3.959  0.2329E+03  0.3549E+03
     -3.829  0.4294E+03  0.4108E+03
     -3.698  0.5156E+03  0.4781E+03
     -3.568  0.4097E+03  0.5315E+03
     -3.438  0.4549E+03  0.5908E+03
     -3.307  0.3537E+03  0.6369E+03
     -3.177  0.3590E+03  0.6837E+03
     -3.047  0.5133E+03  0.7507E+03
     -2.916  0.3819E+03  0.8005E+03
     -2.786  0.5606E+03  0.8736E+03
     -2.655  0.5053E+03  0.9394E+03
     -2.525  0.5454E+03  0.1011E+04
     -2.395  0.6178E+03  0.1091E+04
     -2.264  0.7217E+03  0.1185E+04
     -2.134  0.9183E+03  0.1305E+04
     -2.003  0.7940E+03  0.1408E+04
     -1.873  0.9161E+03  0.1528E+04
     -1.743  0.5724E+03  0.1603E+04
     -1.612  0.5926E+03  0.1680E+04
     -1.482  0.5329E+03  0.1749E+04
     -1.352  0.7135E+03  0.1842E+04
     -1.221  0.7654E+03  0.1942E+04
     -1.091  0.5105E+03  0.2009E+04
     -0.960  0.7649E+03  0.2108E+04
     -0.830  0.8599E+03  0.2221E+04
     -0.700  0.6566E+03  0.2306E+04
     -0.569  0.1060E+04  0.2444E+04
     -0.439  0.1190E+04  0.2599E+04
     -0.308  0.4515E+03  0.2658E+04
     -0.178  0.1409E+03  0.2677E+04
     -0.048  0.1440E+03  0.2696E+04
      0.083  0.1621E+03  0.2717E+04
      0.213  0.4196E+02  0.2722E+04
      0.343  0.4901E+02  0.2729E+04
      0.474  0.9209E+02  0.2741E+04
      0.604  0.8976E+02  0.2752E+04
      0.735  0.9315E+02  0.2764E+04
      0.865  0.7984E+02  0.2775E+04
      0.995  0.1407E+03  0.2793E+04
      1.126  0.6892E+02  0.2802E+04
      1.256  0.2921E+02  0.2806E+04
      1.387  0.1238E+03  0.2822E+04
      1.517  0.2919E+02  0.2826E+04
      1.647  0.8583E+02  0.2837E+04
      1.778  0.9305E+02  0.2849E+04
      1.908  0.7710E+02  0.2859E+04
      2.039  0.9794E+02  0.2872E+04
      2.169  0.4000E+02  0.2877E+04
      2.299  0.1040E+03  0.2891E+04
      2.430  0.1071E+03  0.2905E+04
      2.560  0.2833E+02  0.2908E+04
      2.690  0.6123E+02  0.2916E+04
      2.821  0.1156E+02  0.2918E+04
      2.951  0.4814E+02  0.2924E+04
      3.082  0.1535E+03  0.2944E+04
      3.212  0.1544E+03  0.2964E+04
      3.342  0.2355E+02  0.2967E+04
      3.473  0.3937E+02  0.2973E+04
      3.603  0.8383E+02  0.2983E+04
      3.734  0.5166E+02  0.2990E+04
      3.864  0.4059E+02  0.2996E+04
      3.994  0.2011E+02  0.2998E+04
      4.125  0.1044E+02  0.2999E+04
      4.255  0.6333E+02  0.3008E+04
      4.385  0.4692E+02  0.3014E+04
      4.516  0.8316E+02  0.3025E+04
      4.646  0.5796E+02  0.3032E+04
      4.777  0.4383E+02  0.3038E+04
      4.907  0.1188E+00  0.3038E+04
      5.037  0.9065E-08  0.3038E+04
      5.168  0.0000E+00  0.3038E+04
      5.298  0.0000E+00  0.3038E+04
      5.429  0.0000E+00  0.3038E+04
      5.559  0.0000E+00  0.3038E+04
      5.689  0.0000E+00  0.3038E+04
      5.820  0.0000E+00  0.3038E+04
      5.950  0.0000E+00  0.3038E+04
      6.080  0.0000E+00  0.3038E+04
      6.211  0.0000E+00  0.3038E+04
      6.341  0.0000E+00  0.3038E+04
      6.472  0.0000E+00  0.3038E+04
