  254  254    1    1
  0.2268316E+02  0.1514622E-08  0.1514622E-08  0.2900000E-08  0.5000000E-15
   1.0000000000000000E-004
  CAR 
 NiAl                                    
   2532      4   1519
 
  0.1262379E-14  0.1262379E-14  0.1262379E-14  0.2500000E+00
    1      -30.866111   1.000000
    2      -14.678900   1.000000
    3       -9.598529   1.000000
    4       -9.598165   1.000000
    5       -9.063553   1.000000
    6       -9.030039   1.000000
    7       -8.534011   1.000000
    8       -8.155769   1.000000
    9       -8.155747   1.000000
   10       -8.155734   1.000000
   11       -8.155729   1.000000
   12       -8.155718   1.000000
   13       -8.155707   1.000000
   14       -7.705304   1.000000
   15       -7.649767   1.000000
   16       -7.649744   1.000000
   17       -7.649734   1.000000
   18       -7.649729   1.000000
   19       -7.649720   1.000000
   20       -7.649717   1.000000
   21       -6.861676   1.000000
   22       -6.861639   1.000000
   23       -6.861633   1.000000
   24       -6.861611   1.000000
   25       -6.861604   1.000000
   26       -6.861597   1.000000
   27       -6.675205   1.000000
   28       -6.515315   1.000000
   29       -6.515309   1.000000
   30       -6.515296   1.000000
   31       -6.515291   1.000000
   32       -6.515274   1.000000
   33       -6.515264   1.000000
   34       -6.092679   1.000000
   35       -6.092672   1.000000
   36       -6.092658   1.000000
   37       -6.092654   1.000000
   38       -6.092637   1.000000
   39       -6.092631   1.000000
   40       -5.889981   1.000000
   41       -5.889942   1.000000
   42       -5.889928   1.000000
   43       -5.889898   1.000000
   44       -5.889888   1.000000
   45       -5.889886   1.000000
   46       -5.884666   1.000000
   47       -5.884655   1.000000
   48       -5.884647   1.000000
   49       -5.884641   1.000000
   50       -5.884638   1.000000
   51       -5.884634   1.000000
   52       -5.650563   1.000000
   53       -5.549642   1.000000
   54       -5.549638   1.000000
   55       -5.549630   1.000000
   56       -5.549614   1.000000
   57       -5.549605   1.000000
   58       -5.549602   1.000000
   59       -5.459680   1.000000
   60       -5.459676   1.000000
   61       -5.459661   1.000000
   62       -5.459649   1.000000
   63       -5.459628   1.000000
   64       -5.459625   1.000000
   65       -5.092305   1.000000
   66       -5.092304   1.000000
   67       -5.092281   1.000000
   68       -5.092276   1.000000
   69       -5.092253   1.000000
   70       -5.092248   1.000000
   71       -4.994997   1.000000
   72       -4.939291   1.000000
   73       -4.939220   1.000000
   74       -4.939212   1.000000
   75       -4.939170   1.000000
   76       -4.939164   1.000000
   77       -4.939153   1.000000
   78       -4.804644   1.000000
   79       -4.746812   1.000000
   80       -4.746811   1.000000
   81       -4.746751   1.000000
   82       -4.728583   1.000000
   83       -4.728565   1.000000
   84       -4.728557   1.000000
   85       -4.728535   1.000000
   86       -4.728524   1.000000
   87       -4.728518   1.000000
   88       -4.624498   1.000000
   89       -4.624486   1.000000
   90       -4.624469   1.000000
   91       -4.624463   1.000000
   92       -4.624409   1.000000
   93       -4.624398   1.000000
   94       -4.590721   1.000000
   95       -4.590716   1.000000
   96       -4.590619   1.000000
   97       -4.514623   1.000000
   98       -4.514609   1.000000
   99       -4.514602   1.000000
  100       -4.514600   1.000000
  101       -4.514584   1.000000
  102       -4.514558   1.000000
  103       -4.514553   1.000000
  104       -4.514545   1.000000
  105       -4.514542   1.000000
  106       -4.514536   1.000000
  107       -4.514535   1.000000
  108       -4.514532   1.000000
  109       -4.468750   1.000000
  110       -4.468745   1.000000
  111       -4.468678   1.000000
  112       -4.382325   1.000000
  113       -4.382317   1.000000
  114       -4.382217   1.000000
  115       -4.361034   1.000000
  116       -4.360953   1.000000
  117       -4.360947   1.000000
  118       -4.360920   1.000000
  119       -4.360898   1.000000
  120       -4.360893   1.000000
  121       -4.316126   1.000000
  122       -4.316117   1.000000
  123       -4.316113   1.000000
  124       -4.316107   1.000000
  125       -4.316093   1.000000
  126       -4.316085   1.000000
  127       -4.316070   1.000000
  128       -4.316065   1.000000
  129       -4.316049   1.000000
  130       -4.316044   1.000000
  131       -4.316038   1.000000
  132       -4.316034   1.000000
  133       -4.281639   1.000000
  134       -4.281623   1.000000
  135       -4.281622   1.000000
  136       -4.281618   1.000000
  137       -4.281599   1.000000
  138       -4.281596   1.000000
  139       -4.281591   1.000000
  140       -4.281586   1.000000
  141       -4.281577   1.000000
  142       -4.281556   1.000000
  143       -4.281553   1.000000
  144       -4.281538   1.000000
  145       -4.236953   1.000000
  146       -4.236901   1.000000
  147       -4.236889   1.000000
  148       -4.236871   1.000000
  149       -4.236860   1.000000
  150       -4.236850   1.000000
  151       -4.200638   1.000000
  152       -4.200629   1.000000
  153       -4.200614   1.000000
  154       -4.200605   1.000000
  155       -4.200519   1.000000
  156       -4.200505   1.000000
  157       -4.180652   1.000000
  158       -4.180651   1.000000
  159       -4.180547   1.000000
  160       -4.143635   1.000000
  161       -4.143629   1.000000
  162       -4.143625   1.000000
  163       -4.143615   1.000000
  164       -4.143608   1.000000
  165       -4.143601   1.000000
  166       -4.143590   1.000000
  167       -4.143586   1.000000
  168       -4.143571   1.000000
  169       -4.143562   1.000000
  170       -4.143552   1.000000
  171       -4.143536   1.000000
  172       -4.073784   1.000000
  173       -4.073773   1.000000
  174       -4.073761   1.000000
  175       -4.073742   1.000000
  176       -4.073728   1.000000
  177       -4.073722   1.000000
  178       -4.034342   1.000000
  179       -4.034339   1.000000
  180       -4.034169   1.000000
  181       -3.966248   1.000000
  182       -3.966243   1.000000
  183       -3.966132   1.000000
  184       -3.943743   1.000000
  185       -3.943712   1.000000
  186       -3.943696   1.000000
  187       -3.943687   1.000000
  188       -3.943683   1.000000
  189       -3.943679   1.000000
  190       -3.943670   1.000000
  191       -3.943662   1.000000
  192       -3.943652   1.000000
  193       -3.943623   1.000000
  194       -3.943619   1.000000
  195       -3.943606   1.000000
  196       -3.880666   1.000000
  197       -3.880658   1.000000
  198       -3.880520   1.000000
  199       -3.826218   1.000000
  200       -3.826213   1.000000
  201       -3.826068   1.000000
  202       -3.823883   1.000000
  203       -3.823870   1.000000
  204       -3.823854   1.000000
  205       -3.823849   1.000000
  206       -3.823723   1.000000
  207       -3.823705   1.000000
  208       -3.754379   1.000000
  209       -3.754376   1.000000
  210       -3.754357   1.000000
  211       -3.754349   1.000000
  212       -3.754346   1.000000
  213       -3.754338   1.000000
  214       -3.754337   1.000000
  215       -3.754329   1.000000
  216       -3.754198   1.000000
  217       -3.754163   1.000000
  218       -3.754154   1.000000
  219       -3.754137   1.000000
  220       -3.748256   1.000000
  221       -3.748238   1.000000
  222       -3.748235   1.000000
  223       -3.748221   1.000000
  224       -3.748095   1.000000
  225       -3.748090   1.000000
  226       -3.695342   1.000000
  227       -3.695321   1.000000
  228       -3.695298   1.000000
  229       -3.695293   1.000000
  230       -3.695279   1.000000
  231       -3.695269   1.000000
  232       -3.695265   1.000000
  233       -3.695260   1.000000
  234       -3.695247   1.000000
  235       -3.695223   1.000000
  236       -3.695211   1.000000
  237       -3.695203   1.000000
  238       -3.672354   1.000000
  239       -3.672339   1.000000
  240       -3.672305   1.000000
  241       -3.672290   1.000000
  242       -3.672280   1.000000
  243       -3.672265   1.000000
  244       -3.632829   1.000000
  245       -3.632822   1.000000
  246       -3.632811   1.000000
  247       -3.632805   1.000000
  248       -3.632713   1.000000
  249       -3.632699   1.000000
  250       -3.628954   1.000000
  251       -3.628940   1.000000
  252       -3.628887   1.000000
  253       -3.628880   1.000000
  254       -3.620719   1.000000
  255       -3.620689   1.000000
  256       -3.566168   1.000000
  257       -3.566149   1.000000
  258       -3.566131   1.000000
  259       -3.566126   1.000000
  260       -3.566120   1.000000
  261       -3.566119   1.000000
  262       -3.566112   1.000000
  263       -3.566103   1.000000
  264       -3.565988   1.000000
  265       -3.565963   1.000000
  266       -3.565946   1.000000
  267       -3.565940   1.000000
  268       -3.557520   1.000000
  269       -3.557514   1.000000
  270       -3.557408   1.000000
  271       -3.532968   1.000000
  272       -3.532955   1.000000
  273       -3.532954   1.000000
  274       -3.532946   1.000000
  275       -3.510772   1.000000
  276       -3.510745   1.000000
  277       -3.510737   1.000000
  278       -3.510723   1.000000
  279       -3.510563   1.000000
  280       -3.510552   1.000000
  281       -3.499248   1.000000
  282       -3.499231   1.000000
  283       -3.489048   1.000000
  284       -3.489045   1.000000
  285       -3.488971   1.000000
  286       -3.488963   1.000000
  287       -3.487123   1.000000
  288       -3.487105   1.000000
  289       -3.484015   1.000000
  290       -3.483992   1.000000
  291       -3.483966   1.000000
  292       -3.483956   1.000000
  293       -3.483941   1.000000
  294       -3.483933   1.000000
  295       -3.415312   1.000000
  296       -3.415297   1.000000
  297       -3.415255   1.000000
  298       -3.415248   1.000000
  299       -3.407857   1.000000
  300       -3.407833   1.000000
  301       -3.407823   1.000000
  302       -3.407812   1.000000
  303       -3.407756   1.000000
  304       -3.407747   1.000000
  305       -3.407741   1.000000
  306       -3.407730   1.000000
  307       -3.407715   1.000000
  308       -3.407700   1.000000
  309       -3.407694   1.000000
  310       -3.407677   1.000000
  311       -3.336163   1.000000
  312       -3.336149   1.000000
  313       -3.336098   1.000000
  314       -3.336090   1.000000
  315       -3.336079   1.000000
  316       -3.336065   1.000000
  317       -3.300080   1.000000
  318       -3.300062   1.000000
  319       -3.300030   1.000000
  320       -3.300023   1.000000
  321       -3.300014   1.000000
  322       -3.300011   1.000000
  323       -3.300007   1.000000
  324       -3.299992   1.000000
  325       -3.299922   1.000000
  326       -3.299885   1.000000
  327       -3.299884   1.000000
  328       -3.299868   1.000000
  329       -3.289466   1.000000
  330       -3.289439   1.000000
  331       -3.289385   1.000000
  332       -3.289383   1.000000
  333       -3.289364   1.000000
  334       -3.289359   1.000000
  335       -3.282371   1.000000
  336       -3.282355   1.000000
  337       -3.282336   1.000000
  338       -3.282327   1.000000
  339       -3.282229   1.000000
  340       -3.282208   1.000000
  341       -3.194551   1.000000
  342       -3.194544   1.000000
  343       -3.194501   1.000000
  344       -3.154479   1.000000
  345       -3.154416   1.000000
  346       -3.154380   1.000000
  347       -3.154359   1.000000
  348       -3.154350   1.000000
  349       -3.154333   1.000000
  350       -3.143057   1.000000
  351       -3.143009   1.000000
  352       -3.120197   1.000000
  353       -3.120166   1.000000
  354       -3.120149   1.000000
  355       -3.120140   1.000000
  356       -3.120110   1.000000
  357       -3.120096   1.000000
  358       -3.120084   1.000000
  359       -3.120076   1.000000
  360       -3.120071   1.000000
  361       -3.120068   1.000000
  362       -3.120050   1.000000
  363       -3.120036   1.000000
  364       -3.110718   1.000000
  365       -3.110666   1.000000
  366       -3.049162   1.000000
  367       -3.049131   1.000000
  368       -3.049118   1.000000
  369       -3.049098   1.000000
  370       -3.049060   1.000000
  371       -3.049055   1.000000
  372       -3.023500   1.000000
  373       -3.023452   1.000000
  374       -3.023397   1.000000
  375       -3.023373   1.000000
  376       -3.023359   1.000000
  377       -3.023342   1.000000
  378       -3.023063   1.000000
  379       -3.023046   1.000000
  380       -3.023024   1.000000
  381       -3.023023   1.000000
  382       -3.022949   1.000000
  383       -3.022921   1.000000
  384       -2.971611   1.000000
  385       -2.971579   1.000000
  386       -2.971557   1.000000
  387       -2.971551   1.000000
  388       -2.971533   1.000000
  389       -2.971523   1.000000
  390       -2.971513   1.000000
  391       -2.971495   1.000000
  392       -2.971487   1.000000
  393       -2.971483   1.000000
  394       -2.971480   1.000000
  395       -2.971468   1.000000
  396       -2.916190   1.000000
  397       -2.916175   1.000000
  398       -2.916091   1.000000
  399       -2.916077   1.000000
  400       -2.916072   1.000000
  401       -2.916058   1.000000
  402       -2.857690   1.000000
  403       -2.857684   1.000000
  404       -2.857587   1.000000
  405       -2.857572   1.000000
  406       -2.857545   1.000000
  407       -2.857541   1.000000
  408       -2.847086   1.000000
  409       -2.847077   1.000000
  410       -2.847039   1.000000
  411       -2.847030   1.000000
  412       -2.847003   1.000000
  413       -2.846992   1.000000
  414       -2.820699   1.000000
  415       -2.820687   1.000000
  416       -2.820675   1.000000
  417       -2.820664   1.000000
  418       -2.820658   1.000000
  419       -2.820653   1.000000
  420       -2.814621   1.000000
  421       -2.814600   1.000000
  422       -2.814504   1.000000
  423       -2.814492   1.000000
  424       -2.814471   1.000000
  425       -2.814468   1.000000
  426       -2.791221   1.000000
  427       -2.791190   1.000000
  428       -2.791184   1.000000
  429       -2.791180   1.000000
  430       -2.791176   1.000000
  431       -2.791152   1.000000
  432       -2.786935   1.000000
  433       -2.786919   1.000000
  434       -2.786903   1.000000
  435       -2.786885   1.000000
  436       -2.786877   1.000000
  437       -2.786865   1.000000
  438       -2.786844   1.000000
  439       -2.786835   1.000000
  440       -2.786817   1.000000
  441       -2.786817   1.000000
  442       -2.786804   1.000000
  443       -2.786793   1.000000
  444       -2.723641   1.000000
  445       -2.723626   1.000000
  446       -2.723581   1.000000
  447       -2.713731   1.000000
  448       -2.713724   1.000000
  449       -2.713710   1.000000
  450       -2.713684   1.000000
  451       -2.713681   1.000000
  452       -2.713664   1.000000
  453       -2.713663   1.000000
  454       -2.713659   1.000000
  455       -2.713651   1.000000
  456       -2.713649   1.000000
  457       -2.713647   1.000000
  458       -2.713634   1.000000
  459       -2.710141   1.000000
  460       -2.710125   1.000000
  461       -2.710096   1.000000
  462       -2.710079   1.000000
  463       -2.710006   1.000000
  464       -2.709985   1.000000
  465       -2.672611   1.000000
  466       -2.672597   1.000000
  467       -2.672514   1.000000
  468       -2.672507   1.000000
  469       -2.622777   1.000000
  470       -2.622766   1.000000
  471       -2.622759   1.000000
  472       -2.622743   1.000000
  473       -2.622724   1.000000
  474       -2.622715   1.000000
  475       -2.619368   1.000000
  476       -2.619326   1.000000
  477       -2.617130   1.000000
  478       -2.617113   1.000000
  479       -2.617089   1.000000
  480       -2.617084   1.000000
  481       -2.617064   1.000000
  482       -2.617053   1.000000
  483       -2.616678   1.000000
  484       -2.616653   1.000000
  485       -2.616564   1.000000
  486       -2.616552   1.000000
  487       -2.616534   1.000000
  488       -2.616523   1.000000
  489       -2.610967   1.000000
  490       -2.610965   1.000000
  491       -2.610941   1.000000
  492       -2.610933   1.000000
  493       -2.610925   1.000000
  494       -2.610912   1.000000
  495       -2.610910   1.000000
  496       -2.610908   1.000000
  497       -2.610904   1.000000
  498       -2.610899   1.000000
  499       -2.610894   1.000000
  500       -2.610889   1.000000
  501       -2.558956   1.000000
  502       -2.558931   1.000000
  503       -2.558917   1.000000
  504       -2.558895   1.000000
  505       -2.558815   1.000000
  506       -2.558796   1.000000
  507       -2.550835   1.000000
  508       -2.550824   1.000000
  509       -2.550788   1.000000
  510       -2.550783   1.000000
  511       -2.550779   1.000000
  512       -2.550772   1.000000
  513       -2.524936   1.000000
  514       -2.524927   1.000000
  515       -2.524922   1.000000
  516       -2.524913   1.000000
  517       -2.514792   1.000000
  518       -2.497164   1.000000
  519       -2.497102   1.000000
  520       -2.497034   1.000000
  521       -2.497007   1.000000
  522       -2.496984   1.000000
  523       -2.496977   1.000000
  524       -2.475546   1.000000
  525       -2.452009   1.000000
  526       -2.451990   1.000000
  527       -2.451970   1.000000
  528       -2.451952   1.000000
  529       -2.451940   1.000000
  530       -2.451923   1.000000
  531       -2.451910   1.000000
  532       -2.451903   1.000000
  533       -2.451894   1.000000
  534       -2.451887   1.000000
  535       -2.451879   1.000000
  536       -2.451868   1.000000
  537       -2.435920   1.000000
  538       -2.435874   1.000000
  539       -2.435813   1.000000
  540       -2.435754   1.000000
  541       -2.435721   1.000000
  542       -2.435716   1.000000
  543       -2.408766   1.000000
  544       -2.408756   1.000000
  545       -2.408617   1.000000
  546       -2.393974   1.000000
  547       -2.393964   1.000000
  548       -2.393947   1.000000
  549       -2.393922   1.000000
  550       -2.393828   1.000000
  551       -2.393815   1.000000
  552       -2.380096   1.000000
  553       -2.380081   1.000000
  554       -2.380063   1.000000
  555       -2.380046   1.000000
  556       -2.380037   1.000000
  557       -2.380022   1.000000
  558       -2.380012   1.000000
  559       -2.380007   1.000000
  560       -2.379998   1.000000
  561       -2.379992   1.000000
  562       -2.379982   1.000000
  563       -2.379968   1.000000
  564       -2.371599   1.000000
  565       -2.371561   1.000000
  566       -2.371523   1.000000
  567       -2.371483   1.000000
  568       -2.371467   1.000000
  569       -2.371450   1.000000
  570       -2.370100   1.000000
  571       -2.370021   1.000000
  572       -2.370017   1.000000
  573       -2.319714   1.000000
  574       -2.319695   1.000000
  575       -2.319682   1.000000
  576       -2.319676   1.000000
  577       -2.319595   1.000000
  578       -2.319579   1.000000
  579       -2.318041   1.000000
  580       -2.317873   1.000000
  581       -2.316436   1.000000
  582       -2.316217   1.000000
  583       -2.304858   1.000000
  584       -2.304840   1.000000
  585       -2.304822   1.000000
  586       -2.304809   1.000000
  587       -2.304697   1.000000
  588       -2.304671   1.000000
  589       -2.287120   1.000000
  590       -2.276388   1.000000
  591       -2.276376   1.000000
  592       -2.276368   1.000000
  593       -2.276341   1.000000
  594       -2.276331   1.000000
  595       -2.276326   1.000000
  596       -2.262901   1.000000
  597       -2.262885   1.000000
  598       -2.262878   1.000000
  599       -2.262864   1.000000
  600       -2.262824   1.000000
  601       -2.262813   1.000000
  602       -2.257747   1.000000
  603       -2.257739   1.000000
  604       -2.257566   1.000000
  605       -2.243927   1.000000
  606       -2.243920   1.000000
  607       -2.243847   1.000000
  608       -2.243842   1.000000
  609       -2.243833   1.000000
  610       -2.243827   1.000000
  611       -2.228309   1.000000
  612       -2.228088   1.000000
  613       -2.203661   1.000000
  614       -2.203641   1.000000
  615       -2.203605   1.000000
  616       -2.199628   1.000000
  617       -2.199597   1.000000
  618       -2.199566   1.000000
  619       -2.199537   1.000000
  620       -2.199479   1.000000
  621       -2.199467   1.000000
  622       -2.199087   1.000000
  623       -2.183545   1.000000
  624       -2.183364   1.000000
  625       -2.169019   1.000000
  626       -2.169016   1.000000
  627       -2.168936   1.000000
  628       -2.168916   1.000000
  629       -2.168903   1.000000
  630       -2.168896   1.000000
  631       -2.162728   1.000000
  632       -2.162717   1.000000
  633       -2.162700   1.000000
  634       -2.145437   1.000000
  635       -2.145420   1.000000
  636       -2.145414   1.000000
  637       -2.145413   1.000000
  638       -2.145276   1.000000
  639       -2.145270   1.000000
  640       -2.134205   1.000000
  641       -2.134120   1.000000
  642       -2.134114   1.000000
  643       -2.121677   1.000000
  644       -2.121669   1.000000
  645       -2.121586   1.000000
  646       -2.121578   1.000000
  647       -2.121573   1.000000
  648       -2.121454   1.000000
  649       -2.117400   1.000000
  650       -2.117373   1.000000
  651       -2.117348   1.000000
  652       -2.117326   1.000000
  653       -2.117321   1.000000
  654       -2.117317   1.000000
  655       -2.117312   1.000000
  656       -2.117298   1.000000
  657       -2.117294   1.000000
  658       -2.117289   1.000000
  659       -2.117272   1.000000
  660       -2.117264   1.000000
  661       -2.108039   1.000000
  662       -2.108029   1.000000
  663       -2.107961   1.000000
  664       -2.107957   1.000000
  665       -2.107868   1.000000
  666       -2.107860   1.000000
  667       -2.102624   1.000000
  668       -2.102566   1.000000
  669       -2.102550   1.000000
  670       -2.102540   1.000000
  671       -2.102449   1.000000
  672       -2.102422   1.000000
  673       -2.056198   1.000000
  674       -2.056179   1.000000
  675       -2.056147   1.000000
  676       -2.056132   1.000000
  677       -2.056018   1.000000
  678       -2.056000   1.000000
  679       -2.051948   1.000000
  680       -2.033956   1.000000
  681       -2.033927   1.000000
  682       -2.033866   1.000000
  683       -2.033848   1.000000
  684       -2.033847   1.000000
  685       -2.033834   1.000000
  686       -2.009914   1.000000
  687       -2.009795   1.000000
  688       -2.009793   1.000000
  689       -2.009788   1.000000
  690       -2.004821   1.000000
  691       -2.004668   1.000000
  692       -2.004662   1.000000
  693       -2.004630   1.000000
  694       -2.004595   1.000000
  695       -2.004583   1.000000
  696       -2.004562   1.000000
  697       -2.004557   1.000000
  698       -2.004535   1.000000
  699       -2.004514   1.000000
  700       -2.004508   1.000000
  701       -2.004494   1.000000
  702       -1.998726   1.000000
  703       -1.998519   1.000000
  704       -1.989862   1.000000
  705       -1.989847   1.000000
  706       -1.989833   1.000000
  707       -1.989819   1.000000
  708       -1.989809   1.000000
  709       -1.989794   1.000000
  710       -1.989748   1.000000
  711       -1.989745   1.000000
  712       -1.989741   1.000000
  713       -1.989733   1.000000
  714       -1.989725   1.000000
  715       -1.989715   1.000000
  716       -1.986797   1.000000
  717       -1.986581   1.000000
  718       -1.963982   1.000000
  719       -1.963977   1.000000
  720       -1.963843   1.000000
  721       -1.963822   1.000000
  722       -1.963814   1.000000
  723       -1.963802   1.000000
  724       -1.940624   1.000000
  725       -1.940560   1.000000
  726       -1.940525   1.000000
  727       -1.940506   1.000000
  728       -1.940465   1.000000
  729       -1.940421   1.000000
  730       -1.918475   1.000000
  731       -1.918414   1.000000
  732       -1.918328   1.000000
  733       -1.918302   1.000000
  734       -1.918292   1.000000
  735       -1.918280   1.000000
  736       -1.918275   1.000000
  737       -1.918260   1.000000
  738       -1.918256   1.000000
  739       -1.918237   1.000000
  740       -1.918233   1.000000
  741       -1.918215   1.000000
  742       -1.874307   1.000000
  743       -1.874305   1.000000
  744       -1.874175   1.000000
  745       -1.874146   1.000000
  746       -1.874140   1.000000
  747       -1.874119   1.000000
  748       -1.867287   1.000000
  749       -1.867265   1.000000
  750       -1.867259   1.000000
  751       -1.867249   1.000000
  752       -1.867243   1.000000
  753       -1.867234   1.000000
  754       -1.819383   1.000000
  755       -1.819317   1.000000
  756       -1.819281   1.000000
  757       -1.819245   1.000000
  758       -1.819223   1.000000
  759       -1.819209   1.000000
  760       -1.819204   1.000000
  761       -1.819190   1.000000
  762       -1.819181   1.000000
  763       -1.819176   1.000000
  764       -1.819173   1.000000
  765       -1.819161   1.000000
  766       -1.815361   1.000000
  767       -1.815346   1.000000
  768       -1.815323   1.000000
  769       -1.815287   1.000000
  770       -1.815278   1.000000
  771       -1.815263   1.000000
  772       -1.808738   1.000000
  773       -1.808720   1.000000
  774       -1.808684   1.000000
  775       -1.808654   1.000000
  776       -1.808645   1.000000
  777       -1.808631   1.000000
  778       -1.776673   1.000000
  779       -1.776589   1.000000
  780       -1.776572   1.000000
  781       -1.772751   1.000000
  782       -1.772739   1.000000
  783       -1.772616   1.000000
  784       -1.772607   1.000000
  785       -1.772602   1.000000
  786       -1.772585   1.000000
  787       -1.754234   1.000000
  788       -1.754093   1.000000
  789       -1.754027   1.000000
  790       -1.753954   1.000000
  791       -1.753931   1.000000
  792       -1.753897   1.000000
  793       -1.747915   1.000000
  794       -1.747901   1.000000
  795       -1.747785   1.000000
  796       -1.747769   1.000000
  797       -1.747756   1.000000
  798       -1.747739   1.000000
  799       -1.727204   1.000000
  800       -1.727176   1.000000
  801       -1.727125   1.000000
  802       -1.727091   1.000000
  803       -1.727085   1.000000
  804       -1.727055   1.000000
  805       -1.719401   1.000000
  806       -1.719324   1.000000
  807       -1.719260   1.000000
  808       -1.719249   1.000000
  809       -1.719248   1.000000
  810       -1.719210   1.000000
  811       -1.719183   1.000000
  812       -1.719172   1.000000
  813       -1.719166   1.000000
  814       -1.719152   1.000000
  815       -1.719145   1.000000
  816       -1.719131   1.000000
  817       -1.680297   1.000000
  818       -1.680255   1.000000
  819       -1.680162   1.000000
  820       -1.680155   1.000000
  821       -1.680133   1.000000
  822       -1.680113   1.000000
  823       -1.680087   1.000000
  824       -1.680075   1.000000
  825       -1.680052   1.000000
  826       -1.680033   1.000000
  827       -1.680024   1.000000
  828       -1.680009   1.000000
  829       -1.646335   1.000000
  830       -1.646306   1.000000
  831       -1.646193   1.000000
  832       -1.646172   1.000000
  833       -1.646152   1.000000
  834       -1.646133   1.000000
  835       -1.645229   1.000000
  836       -1.645169   1.000000
  837       -1.645150   1.000000
  838       -1.641011   1.000000
  839       -1.640992   1.000000
  840       -1.640982   1.000000
  841       -1.640976   1.000000
  842       -1.640968   1.000000
  843       -1.640958   1.000000
  844       -1.629760   1.000000
  845       -1.629696   1.000000
  846       -1.629640   1.000000
  847       -1.629617   1.000000
  848       -1.629594   1.000000
  849       -1.629576   1.000000
  850       -1.621447   1.000000
  851       -1.621385   1.000000
  852       -1.621329   1.000000
  853       -1.621182   1.000000
  854       -1.621106   1.000000
  855       -1.621084   1.000000
  856       -1.617161   1.000000
  857       -1.617019   1.000000
  858       -1.616937   1.000000
  859       -1.616868   1.000000
  860       -1.616866   1.000000
  861       -1.616853   1.000000
  862       -1.596682   1.000000
  863       -1.596616   1.000000
  864       -1.596584   1.000000
  865       -1.562358   1.000000
  866       -1.562177   1.000000
  867       -1.562151   1.000000
  868       -1.562114   1.000000
  869       -1.562091   1.000000
  870       -1.562062   1.000000
  871       -1.531123   1.000000
  872       -1.531084   1.000000
  873       -1.531068   1.000000
  874       -1.531057   1.000000
  875       -1.531039   1.000000
  876       -1.531030   1.000000
  877       -1.531019   1.000000
  878       -1.531011   1.000000
  879       -1.530987   1.000000
  880       -1.530986   1.000000
  881       -1.530973   1.000000
  882       -1.530967   1.000000
  883       -1.524916   1.000000
  884       -1.511821   1.000000
  885       -1.511737   1.000000
  886       -1.511640   1.000000
  887       -1.511289   1.000000
  888       -1.511238   1.000000
  889       -1.511224   1.000000
  890       -1.458712   1.000000
  891       -1.458702   1.000000
  892       -1.458593   1.000000
  893       -1.458577   1.000000
  894       -1.458571   1.000000
  895       -1.458560   1.000000
  896       -1.404493   1.000000
  897       -1.404418   1.000000
  898       -1.404334   1.000000
  899       -1.404327   1.000000
  900       -1.404269   1.000000
  901       -1.404255   1.000000