 254 254   0   0
  0.3019211E+02  0.1718057E-08  0.1718057E-08  0.3000000E-08  0.5000000E-15
   1.0000000000000000E-004
  CAR 
 NiAl                                    
      5.24177002    -19.61102931  301      1.76966395      1.00000000
    -19.611  0.0000E+00  0.0000E+00
    -19.528  0.0000E+00  0.0000E+00
    -19.445  0.0000E+00  0.0000E+00
    -19.363  0.0000E+00  0.0000E+00
    -19.280  0.0000E+00  0.0000E+00
    -19.197  0.0000E+00  0.0000E+00
    -19.114  0.0000E+00  0.0000E+00
    -19.031  0.0000E+00  0.0000E+00
    -18.948  0.0000E+00  0.0000E+00
    -18.865  0.0000E+00  0.0000E+00
    -18.783  0.0000E+00  0.0000E+00
    -18.700  0.7595E-08  0.6292E-09
    -18.617  0.1486E-02  0.1231E-03
    -18.534  0.1622E+01  0.1345E+00
    -18.451  0.1772E+02  0.1603E+01
    -18.368  0.4779E+01  0.1999E+01
    -18.286  0.1720E-01  0.2000E+01
    -18.203  0.3806E-06  0.2000E+01
    -18.120  0.4154E-13  0.2000E+01
    -18.037  0.0000E+00  0.2000E+01
    -17.954  0.0000E+00  0.2000E+01
    -17.871  0.0000E+00  0.2000E+01
    -17.788  0.0000E+00  0.2000E+01
    -17.706  0.0000E+00  0.2000E+01
    -17.623  0.0000E+00  0.2000E+01
    -17.540  0.0000E+00  0.2000E+01
    -17.457  0.0000E+00  0.2000E+01
    -17.374  0.0000E+00  0.2000E+01
    -17.291  0.0000E+00  0.2000E+01
    -17.209  0.0000E+00  0.2000E+01
    -17.126  0.0000E+00  0.2000E+01
    -17.043  0.0000E+00  0.2000E+01
    -16.960  0.0000E+00  0.2000E+01
    -16.877  0.0000E+00  0.2000E+01
    -16.794  0.0000E+00  0.2000E+01
    -16.712  0.0000E+00  0.2000E+01
    -16.629  0.0000E+00  0.2000E+01
    -16.546  0.0000E+00  0.2000E+01
    -16.463  0.0000E+00  0.2000E+01
    -16.380  0.0000E+00  0.2000E+01
    -16.297  0.0000E+00  0.2000E+01
    -16.214  0.0000E+00  0.2000E+01
    -16.132  0.0000E+00  0.2000E+01
    -16.049  0.0000E+00  0.2000E+01
    -15.966  0.0000E+00  0.2000E+01
    -15.883  0.0000E+00  0.2000E+01
    -15.800  0.0000E+00  0.2000E+01
    -15.717  0.0000E+00  0.2000E+01
    -15.635  0.0000E+00  0.2000E+01
    -15.552  0.0000E+00  0.2000E+01
    -15.469  0.0000E+00  0.2000E+01
    -15.386  0.0000E+00  0.2000E+01
    -15.303  0.0000E+00  0.2000E+01
    -15.220  0.0000E+00  0.2000E+01
    -15.138  0.0000E+00  0.2000E+01
    -15.055  0.0000E+00  0.2000E+01
    -14.972  0.0000E+00  0.2000E+01
    -14.889  0.0000E+00  0.2000E+01
    -14.806  0.0000E+00  0.2000E+01
    -14.723  0.0000E+00  0.2000E+01
    -14.640  0.2355E-12  0.2000E+01
    -14.558  0.1319E-05  0.2000E+01
    -14.475  0.3624E-01  0.2003E+01
    -14.392  0.6390E+01  0.2532E+01
    -14.309  0.1668E+02  0.3914E+01
    -14.226  0.1033E+01  0.4000E+01
    -14.143  0.5876E-03  0.4000E+01
    -14.061  0.1815E-08  0.4000E+01
    -13.978  0.0000E+00  0.4000E+01
    -13.895  0.0000E+00  0.4000E+01
    -13.812  0.0000E+00  0.4000E+01
    -13.729  0.0000E+00  0.4000E+01
    -13.646  0.0000E+00  0.4000E+01
    -13.564  0.0000E+00  0.4000E+01
    -13.481  0.0000E+00  0.4000E+01
    -13.398  0.0000E+00  0.4000E+01
    -13.315  0.0000E+00  0.4000E+01
    -13.232  0.0000E+00  0.4000E+01
    -13.149  0.0000E+00  0.4000E+01
    -13.066  0.0000E+00  0.4000E+01
    -12.984  0.0000E+00  0.4000E+01
    -12.901  0.0000E+00  0.4000E+01
    -12.818  0.0000E+00  0.4000E+01
    -12.735  0.0000E+00  0.4000E+01
    -12.652  0.0000E+00  0.4000E+01
    -12.569  0.0000E+00  0.4000E+01
    -12.487  0.0000E+00  0.4000E+01
    -12.404  0.0000E+00  0.4000E+01
    -12.321  0.0000E+00  0.4000E+01
    -12.238  0.0000E+00  0.4000E+01
    -12.155  0.0000E+00  0.4000E+01
    -12.072  0.0000E+00  0.4000E+01
    -11.990  0.0000E+00  0.4000E+01
    -11.907  0.0000E+00  0.4000E+01
    -11.824  0.0000E+00  0.4000E+01
    -11.741  0.0000E+00  0.4000E+01
    -11.658  0.0000E+00  0.4000E+01
    -11.575  0.0000E+00  0.4000E+01
    -11.492  0.0000E+00  0.4000E+01
    -11.410  0.0000E+00  0.4000E+01
    -11.327  0.0000E+00  0.4000E+01
    -11.244  0.0000E+00  0.4000E+01
    -11.161  0.0000E+00  0.4000E+01
    -11.078  0.0000E+00  0.4000E+01
    -10.995  0.0000E+00  0.4000E+01
    -10.913  0.0000E+00  0.4000E+01
    -10.830  0.0000E+00  0.4000E+01
    -10.747  0.0000E+00  0.4000E+01
    -10.664  0.0000E+00  0.4000E+01
    -10.581  0.0000E+00  0.4000E+01
    -10.498  0.0000E+00  0.4000E+01
    -10.415  0.0000E+00  0.4000E+01
    -10.333  0.0000E+00  0.4000E+01
    -10.250  0.0000E+00  0.4000E+01
    -10.167  0.0000E+00  0.4000E+01
    -10.084  0.0000E+00  0.4000E+01
    -10.001  0.0000E+00  0.4000E+01
     -9.918  0.0000E+00  0.4000E+01
     -9.836  0.0000E+00  0.4000E+01
     -9.753  0.0000E+00  0.4000E+01
     -9.670  0.0000E+00  0.4000E+01
     -9.587  0.0000E+00  0.4000E+01
     -9.504  0.0000E+00  0.4000E+01
     -9.421  0.6600E-13  0.4000E+01
     -9.339  0.3573E-06  0.4000E+01
     -9.256  0.9502E-02  0.4001E+01
     -9.173  0.1626E+01  0.4136E+01
     -9.090  0.4200E+01  0.4483E+01
     -9.007  0.9612E+01  0.5280E+01
     -8.924  0.2519E+02  0.7366E+01
     -8.841  0.2219E+01  0.7550E+01
     -8.759  0.4611E+01  0.7932E+01
     -8.676  0.1312E+02  0.9019E+01
     -8.593  0.5296E+02  0.1341E+02
     -8.510  0.1577E+02  0.1471E+02
     -8.427  0.2574E+02  0.1685E+02
     -8.344  0.5177E+01  0.1727E+02
     -8.262  0.2726E+02  0.1953E+02
     -8.179  0.9759E+01  0.2034E+02
     -8.096  0.3189E+02  0.2298E+02
     -8.013  0.2806E+02  0.2531E+02
     -7.930  0.7916E+02  0.3186E+02
     -7.847  0.7665E+01  0.3250E+02
     -7.765  0.6865E-01  0.3250E+02
     -7.682  0.2030E+02  0.3419E+02
     -7.599  0.1077E+03  0.4311E+02
     -7.516  0.2198E+02  0.4493E+02
     -7.433  0.2737E+02  0.4720E+02
     -7.350  0.8280E+01  0.4788E+02
     -7.267  0.3193E+02  0.5053E+02
     -7.185  0.2140E+02  0.5230E+02
     -7.102  0.5237E+02  0.5664E+02
     -7.019  0.3512E+02  0.5955E+02
     -6.936  0.1045E+03  0.6821E+02
     -6.853  0.2090E+02  0.6994E+02
     -6.770  0.5415E+02  0.7443E+02
     -6.688  0.3014E+02  0.7692E+02
     -6.605  0.1081E+03  0.8588E+02
     -6.522  0.2458E+02  0.8791E+02
     -6.439  0.2396E+02  0.8990E+02
     -6.356  0.1338E+01  0.9001E+02
     -6.273  0.3821E+01  0.9033E+02
     -6.191  0.3613E+02  0.9332E+02
     -6.108  0.1254E+03  0.1037E+03
     -6.025  0.6582E+02  0.1092E+03
     -5.942  0.9544E+02  0.1171E+03
     -5.859  0.1746E+02  0.1185E+03
     -5.776  0.4780E+02  0.1225E+03
     -5.693  0.6077E+02  0.1275E+03
     -5.611  0.1167E+03  0.1372E+03
     -5.528  0.2750E+02  0.1395E+03
     -5.445  0.2388E+02  0.1414E+03
     -5.362  0.3512E+02  0.1443E+03
     -5.279  0.7165E+02  0.1503E+03
     -5.196  0.4192E+02  0.1537E+03
     -5.114  0.8953E+02  0.1612E+03
     -5.031  0.6841E+02  0.1668E+03
     -4.948  0.6058E+02  0.1719E+03
     -4.865  0.1448E+02  0.1731E+03
     -4.782  0.5245E+02  0.1774E+03
     -4.699  0.1049E+03  0.1861E+03
     -4.617  0.8445E+02  0.1931E+03
     -4.534  0.6135E+02  0.1982E+03
     -4.451  0.4977E+02  0.2023E+03
     -4.368  0.3247E+02  0.2050E+03
     -4.285  0.7914E+02  0.2115E+03
     -4.202  0.1128E+03  0.2209E+03
     -4.119  0.1089E+03  0.2299E+03
     -4.037  0.9320E+02  0.2376E+03
     -3.954  0.3684E+02  0.2407E+03
     -3.871  0.6613E+02  0.2461E+03
     -3.788  0.7304E+02  0.2522E+03
     -3.705  0.9395E+02  0.2600E+03
     -3.622  0.5464E+02  0.2645E+03
     -3.540  0.7260E+02  0.2705E+03
     -3.457  0.3286E+02  0.2732E+03
     -3.374  0.1733E+02  0.2747E+03
     -3.291  0.4535E+02  0.2784E+03
     -3.208  0.9735E+02  0.2865E+03
     -3.125  0.7788E+02  0.2930E+03
     -3.042  0.1234E+03  0.3032E+03
     -2.960  0.7576E+02  0.3095E+03
     -2.877  0.1340E+03  0.3206E+03
     -2.794  0.1466E+03  0.3327E+03
     -2.711  0.1499E+03  0.3451E+03
     -2.628  0.2147E+02  0.3469E+03
     -2.545  0.2210E+02  0.3487E+03
     -2.463  0.3719E+02  0.3518E+03
     -2.380  0.6633E+02  0.3573E+03
     -2.297  0.1213E+03  0.3674E+03
     -2.214  0.8264E+02  0.3742E+03
     -2.131  0.1035E+03  0.3828E+03
     -2.048  0.7003E+02  0.3886E+03
     -1.966  0.4311E+02  0.3922E+03
     -1.883  0.9348E+02  0.3999E+03
     -1.800  0.1482E+03  0.4122E+03
     -1.717  0.1017E+03  0.4206E+03
     -1.634  0.3708E+02  0.4237E+03
     -1.551  0.7312E+02  0.4297E+03
     -1.468  0.6869E+02  0.4354E+03
     -1.386  0.1025E+03  0.4439E+03
     -1.303  0.1677E+03  0.4578E+03
     -1.220  0.1011E+03  0.4662E+03
     -1.137  0.1086E+03  0.4752E+03
     -1.054  0.7472E+02  0.4814E+03
     -0.971  0.7345E+02  0.4875E+03
     -0.889  0.1099E+03  0.4966E+03
     -0.806  0.1143E+03  0.5060E+03
     -0.723  0.8477E+02  0.5131E+03
     -0.640  0.4230E+02  0.5166E+03
     -0.557  0.6405E+02  0.5219E+03
     -0.474  0.1391E+03  0.5334E+03
     -0.392  0.1818E+03  0.5485E+03
     -0.309  0.9441E+02  0.5563E+03
     -0.226  0.1355E+03  0.5675E+03
     -0.143  0.5571E+02  0.5721E+03
     -0.060  0.3952E+02  0.5754E+03
      0.023  0.7532E+02  0.5816E+03
      0.106  0.1157E+03  0.5912E+03
      0.188  0.7646E+02  0.5975E+03
      0.271  0.1041E+03  0.6062E+03
      0.354  0.7742E+02  0.6126E+03
      0.437  0.9771E+02  0.6207E+03
      0.520  0.1339E+03  0.6318E+03
      0.603  0.6729E+02  0.6373E+03
      0.685  0.8102E+02  0.6441E+03
      0.768  0.3129E+02  0.6467E+03
      0.851  0.6569E+02  0.6521E+03
      0.934  0.1575E+03  0.6651E+03
      1.017  0.2366E+03  0.6847E+03
      1.100  0.1281E+03  0.6953E+03
      1.182  0.9461E+02  0.7032E+03
      1.265  0.6742E+02  0.7088E+03
      1.348  0.6810E+02  0.7144E+03
      1.431  0.8820E+02  0.7217E+03
      1.514  0.1201E+03  0.7317E+03
      1.597  0.1636E+03  0.7452E+03
      1.680  0.1726E+03  0.7595E+03
      1.762  0.9748E+02  0.7676E+03
      1.845  0.4037E+02  0.7709E+03
      1.928  0.9406E+02  0.7787E+03
      2.011  0.1669E+03  0.7926E+03
      2.094  0.9623E+02  0.8005E+03
      2.177  0.7943E+02  0.8071E+03
      2.259  0.6567E+02  0.8125E+03
      2.342  0.6375E+02  0.8178E+03
      2.425  0.1102E+03  0.8270E+03
      2.508  0.9147E+02  0.8345E+03
      2.591  0.1352E+03  0.8457E+03
      2.674  0.1133E+03  0.8551E+03
      2.756  0.6598E+02  0.8606E+03
      2.839  0.8693E+02  0.8678E+03
      2.922  0.2789E+03  0.8909E+03
      3.005  0.2245E+03  0.9095E+03
      3.088  0.9899E+02  0.9177E+03
      3.171  0.6429E+02  0.9230E+03
      3.254  0.8705E+02  0.9302E+03
      3.336  0.1292E+03  0.9409E+03
      3.419  0.1493E+03  0.9533E+03
      3.502  0.1221E+03  0.9634E+03
      3.585  0.7317E+02  0.9695E+03
      3.668  0.1144E+03  0.9790E+03
      3.751  0.9970E+02  0.9872E+03
      3.833  0.6078E+02  0.9923E+03
      3.916  0.1289E+03  0.1003E+04
      3.999  0.1600E+03  0.1016E+04
      4.082  0.7981E+02  0.1023E+04
      4.165  0.1397E+02  0.1024E+04
      4.248  0.5842E+00  0.1024E+04
      4.331  0.4364E-03  0.1024E+04
      4.413  0.2071E-08  0.1024E+04
      4.496  0.0000E+00  0.1024E+04
      4.579  0.0000E+00  0.1024E+04
      4.662  0.0000E+00  0.1024E+04
      4.745  0.0000E+00  0.1024E+04
      4.828  0.0000E+00  0.1024E+04
      4.910  0.0000E+00  0.1024E+04
      4.993  0.0000E+00  0.1024E+04
      5.076  0.0000E+00  0.1024E+04
      5.159  0.0000E+00  0.1024E+04
      5.242  0.0000E+00  0.1024E+04
