   4   4   0   0
  0.7621563E+03  0.1450000E-08  0.1450000E-08  0.1450000E-08  0.5000000E-15
   1.0000000000000000E-004
  CAR 
 NiAl                                    
      2.20388819    -35.87155151  301     -6.41068004      1.00000000
    -35.872  0.0000E+00  0.0000E+00
    -35.745  0.0000E+00  0.0000E+00
    -35.618  0.0000E+00  0.0000E+00
    -35.491  0.0000E+00  0.0000E+00
    -35.364  0.0000E+00  0.0000E+00
    -35.237  0.0000E+00  0.0000E+00
    -35.110  0.0000E+00  0.0000E+00
    -34.983  0.0000E+00  0.0000E+00
    -34.856  0.0000E+00  0.0000E+00
    -34.729  0.0000E+00  0.0000E+00
    -34.602  0.0000E+00  0.0000E+00
    -34.475  0.0000E+00  0.0000E+00
    -34.349  0.3348E-07  0.4249E-08
    -34.222  0.1761E+00  0.2235E-01
    -34.095  0.1407E+02  0.1808E+01
    -33.968  0.1511E+01  0.2000E+01
    -33.841  0.7739E-05  0.2000E+01
    -33.714  0.0000E+00  0.2000E+01
    -33.587  0.0000E+00  0.2000E+01
    -33.460  0.0000E+00  0.2000E+01
    -33.333  0.0000E+00  0.2000E+01
    -33.206  0.0000E+00  0.2000E+01
    -33.079  0.0000E+00  0.2000E+01
    -32.952  0.0000E+00  0.2000E+01
    -32.826  0.0000E+00  0.2000E+01
    -32.699  0.0000E+00  0.2000E+01
    -32.572  0.0000E+00  0.2000E+01
    -32.445  0.0000E+00  0.2000E+01
    -32.318  0.0000E+00  0.2000E+01
    -32.191  0.0000E+00  0.2000E+01
    -32.064  0.0000E+00  0.2000E+01
    -31.937  0.2300E-07  0.2000E+01
    -31.810  0.1494E+00  0.2019E+01
    -31.683  0.1393E+02  0.3786E+01
    -31.556  0.1684E+01  0.4000E+01
    -31.429  0.1058E-04  0.4000E+01
    -31.302  0.0000E+00  0.4000E+01
    -31.176  0.0000E+00  0.4000E+01
    -31.049  0.0000E+00  0.4000E+01
    -30.922  0.0000E+00  0.4000E+01
    -30.795  0.0000E+00  0.4000E+01
    -30.668  0.0000E+00  0.4000E+01
    -30.541  0.0000E+00  0.4000E+01
    -30.414  0.0000E+00  0.4000E+01
    -30.287  0.0000E+00  0.4000E+01
    -30.160  0.0000E+00  0.4000E+01
    -30.033  0.0000E+00  0.4000E+01
    -29.906  0.0000E+00  0.4000E+01
    -29.779  0.0000E+00  0.4000E+01
    -29.653  0.0000E+00  0.4000E+01
    -29.526  0.0000E+00  0.4000E+01
    -29.399  0.0000E+00  0.4000E+01
    -29.272  0.0000E+00  0.4000E+01
    -29.145  0.0000E+00  0.4000E+01
    -29.018  0.0000E+00  0.4000E+01
    -28.891  0.0000E+00  0.4000E+01
    -28.764  0.0000E+00  0.4000E+01
    -28.637  0.0000E+00  0.4000E+01
    -28.510  0.0000E+00  0.4000E+01
    -28.383  0.0000E+00  0.4000E+01
    -28.256  0.0000E+00  0.4000E+01
    -28.130  0.0000E+00  0.4000E+01
    -28.003  0.0000E+00  0.4000E+01
    -27.876  0.0000E+00  0.4000E+01
    -27.749  0.0000E+00  0.4000E+01
    -27.622  0.0000E+00  0.4000E+01
    -27.495  0.0000E+00  0.4000E+01
    -27.368  0.0000E+00  0.4000E+01
    -27.241  0.0000E+00  0.4000E+01
    -27.114  0.0000E+00  0.4000E+01
    -26.987  0.0000E+00  0.4000E+01
    -26.860  0.0000E+00  0.4000E+01
    -26.733  0.0000E+00  0.4000E+01
    -26.607  0.0000E+00  0.4000E+01
    -26.480  0.0000E+00  0.4000E+01
    -26.353  0.0000E+00  0.4000E+01
    -26.226  0.0000E+00  0.4000E+01
    -26.099  0.0000E+00  0.4000E+01
    -25.972  0.0000E+00  0.4000E+01
    -25.845  0.0000E+00  0.4000E+01
    -25.718  0.0000E+00  0.4000E+01
    -25.591  0.0000E+00  0.4000E+01
    -25.464  0.0000E+00  0.4000E+01
    -25.337  0.0000E+00  0.4000E+01
    -25.210  0.0000E+00  0.4000E+01
    -25.084  0.0000E+00  0.4000E+01
    -24.957  0.0000E+00  0.4000E+01
    -24.830  0.0000E+00  0.4000E+01
    -24.703  0.0000E+00  0.4000E+01
    -24.576  0.0000E+00  0.4000E+01
    -24.449  0.0000E+00  0.4000E+01
    -24.322  0.0000E+00  0.4000E+01
    -24.195  0.0000E+00  0.4000E+01
    -24.068  0.0000E+00  0.4000E+01
    -23.941  0.0000E+00  0.4000E+01
    -23.814  0.0000E+00  0.4000E+01
    -23.687  0.0000E+00  0.4000E+01
    -23.560  0.0000E+00  0.4000E+01
    -23.434  0.0000E+00  0.4000E+01
    -23.307  0.0000E+00  0.4000E+01
    -23.180  0.0000E+00  0.4000E+01
    -23.053  0.0000E+00  0.4000E+01
    -22.926  0.0000E+00  0.4000E+01
    -22.799  0.0000E+00  0.4000E+01
    -22.672  0.0000E+00  0.4000E+01
    -22.545  0.0000E+00  0.4000E+01
    -22.418  0.0000E+00  0.4000E+01
    -22.291  0.0000E+00  0.4000E+01
    -22.164  0.0000E+00  0.4000E+01
    -22.037  0.0000E+00  0.4000E+01
    -21.911  0.0000E+00  0.4000E+01
    -21.784  0.8677E-09  0.4000E+01
    -21.657  0.3311E-01  0.4004E+01
    -21.530  0.1204E+02  0.5533E+01
    -21.403  0.3680E+01  0.6000E+01
    -21.276  0.1246E-03  0.6000E+01
    -21.149  0.0000E+00  0.6000E+01
    -21.022  0.0000E+00  0.6000E+01
    -20.895  0.0000E+00  0.6000E+01
    -20.768  0.0000E+00  0.6000E+01
    -20.641  0.0000E+00  0.6000E+01
    -20.514  0.0000E+00  0.6000E+01
    -20.388  0.0000E+00  0.6000E+01
    -20.261  0.0000E+00  0.6000E+01
    -20.134  0.0000E+00  0.6000E+01
    -20.007  0.0000E+00  0.6000E+01
    -19.880  0.0000E+00  0.6000E+01
    -19.753  0.0000E+00  0.6000E+01
    -19.626  0.0000E+00  0.6000E+01
    -19.499  0.0000E+00  0.6000E+01
    -19.372  0.0000E+00  0.6000E+01
    -19.245  0.0000E+00  0.6000E+01
    -19.118  0.0000E+00  0.6000E+01
    -18.991  0.0000E+00  0.6000E+01
    -18.865  0.8967E-10  0.6000E+01
    -18.738  0.1090E-01  0.6001E+01
    -18.611  0.1027E+02  0.7305E+01
    -18.484  0.5478E+01  0.8000E+01
    -18.357  0.5396E-03  0.8000E+01
    -18.230  0.2904E-12  0.8000E+01
    -18.103  0.0000E+00  0.8000E+01
    -17.976  0.0000E+00  0.8000E+01
    -17.849  0.0000E+00  0.8000E+01
    -17.722  0.0000E+00  0.8000E+01
    -17.595  0.0000E+00  0.8000E+01
    -17.468  0.0000E+00  0.8000E+01
    -17.342  0.0000E+00  0.8000E+01
    -17.215  0.0000E+00  0.8000E+01
    -17.088  0.0000E+00  0.8000E+01
    -16.961  0.0000E+00  0.8000E+01
    -16.834  0.0000E+00  0.8000E+01
    -16.707  0.0000E+00  0.8000E+01
    -16.580  0.0000E+00  0.8000E+01
    -16.453  0.0000E+00  0.8000E+01
    -16.326  0.0000E+00  0.8000E+01
    -16.199  0.0000E+00  0.8000E+01
    -16.072  0.0000E+00  0.8000E+01
    -15.945  0.3132E-06  0.8000E+01
    -15.818  0.4503E+00  0.8057E+01
    -15.692  0.1459E+02  0.9909E+01
    -15.565  0.7208E+00  0.1000E+02
    -15.438  0.1032E-05  0.1000E+02
    -15.311  0.0000E+00  0.1000E+02
    -15.184  0.0000E+00  0.1000E+02
    -15.057  0.0000E+00  0.1000E+02
    -14.930  0.0000E+00  0.1000E+02
    -14.803  0.0000E+00  0.1000E+02
    -14.676  0.0000E+00  0.1000E+02
    -14.549  0.0000E+00  0.1000E+02
    -14.422  0.0000E+00  0.1000E+02
    -14.295  0.0000E+00  0.1000E+02
    -14.169  0.0000E+00  0.1000E+02
    -14.042  0.8046E-05  0.1000E+02
    -13.915  0.1532E+01  0.1019E+02
    -13.788  0.1473E+02  0.1206E+02
    -13.661  0.1477E+02  0.1394E+02
    -13.534  0.4832E+00  0.1400E+02
    -13.407  0.3733E-06  0.1400E+02
    -13.280  0.0000E+00  0.1400E+02
    -13.153  0.0000E+00  0.1400E+02
    -13.026  0.0000E+00  0.1400E+02
    -12.899  0.0000E+00  0.1400E+02
    -12.772  0.5948E-13  0.1400E+02
    -12.646  0.2251E-03  0.1400E+02
    -12.519  0.4349E+01  0.1455E+02
    -12.392  0.1139E+02  0.1600E+02
    -12.265  0.2162E-01  0.1600E+02
    -12.138  0.3062E-05  0.1600E+02
    -12.011  0.1084E+01  0.1614E+02
    -11.884  0.1440E+02  0.1796E+02
    -11.757  0.2780E+00  0.1800E+02
    -11.630  0.9726E-07  0.1800E+02
    -11.503  0.0000E+00  0.1800E+02
    -11.376  0.0000E+00  0.1800E+02
    -11.249  0.0000E+00  0.1800E+02
    -11.123  0.0000E+00  0.1800E+02
    -10.996  0.0000E+00  0.1800E+02
    -10.869  0.0000E+00  0.1800E+02
    -10.742  0.0000E+00  0.1800E+02
    -10.615  0.0000E+00  0.1800E+02
    -10.488  0.0000E+00  0.1800E+02
    -10.361  0.0000E+00  0.1800E+02
    -10.234  0.0000E+00  0.1800E+02
    -10.107  0.0000E+00  0.1800E+02
     -9.980  0.0000E+00  0.1800E+02
     -9.853  0.0000E+00  0.1800E+02
     -9.726  0.0000E+00  0.1800E+02
     -9.599  0.0000E+00  0.1800E+02
     -9.473  0.0000E+00  0.1800E+02
     -9.346  0.0000E+00  0.1800E+02
     -9.219  0.0000E+00  0.1800E+02
     -9.092  0.2375E-09  0.1800E+02
     -8.965  0.1767E-01  0.1800E+02
     -8.838  0.1106E+02  0.1941E+02
     -8.711  0.4676E+01  0.2000E+02
     -8.584  0.2940E-03  0.2000E+02
     -8.457  0.9622E-13  0.2000E+02
     -8.330  0.0000E+00  0.2000E+02
     -8.203  0.2447E-11  0.2000E+02
     -8.076  0.1699E-02  0.2000E+02
     -7.950  0.7186E+01  0.2091E+02
     -7.823  0.8566E+01  0.2200E+02
     -7.696  0.3956E-02  0.2200E+02
     -7.569  0.1226E-10  0.2200E+02
     -7.442  0.0000E+00  0.2200E+02
     -7.315  0.0000E+00  0.2200E+02
     -7.188  0.0000E+00  0.2200E+02
     -7.061  0.0000E+00  0.2200E+02
     -6.934  0.2266E-09  0.2200E+02
     -6.807  0.1727E-01  0.2200E+02
     -6.680  0.1103E+02  0.2340E+02
     -6.553  0.4714E+01  0.2400E+02
     -6.427  0.3030E-03  0.2400E+02
     -6.300  0.1015E-12  0.2400E+02
     -6.173  0.0000E+00  0.2400E+02
     -6.046  0.0000E+00  0.2400E+02
     -5.919  0.0000E+00  0.2400E+02
     -5.792  0.0000E+00  0.2400E+02
     -5.665  0.0000E+00  0.2400E+02
     -5.538  0.0000E+00  0.2400E+02
     -5.411  0.0000E+00  0.2400E+02
     -5.284  0.2407E-06  0.2400E+02
     -5.157  0.4046E+00  0.2405E+02
     -5.030  0.1456E+02  0.2590E+02
     -4.904  0.7937E+00  0.2600E+02
     -4.777  0.1328E-05  0.2600E+02
     -4.650  0.0000E+00  0.2600E+02
     -4.523  0.0000E+00  0.2600E+02
     -4.396  0.0000E+00  0.2600E+02
     -4.269  0.0000E+00  0.2600E+02
     -4.142  0.0000E+00  0.2600E+02
     -4.015  0.0000E+00  0.2600E+02
     -3.888  0.0000E+00  0.2600E+02
     -3.761  0.0000E+00  0.2600E+02
     -3.634  0.0000E+00  0.2600E+02
     -3.507  0.0000E+00  0.2600E+02
     -3.381  0.0000E+00  0.2600E+02
     -3.254  0.0000E+00  0.2600E+02
     -3.127  0.0000E+00  0.2600E+02
     -3.000  0.0000E+00  0.2600E+02
     -2.873  0.1113E-10  0.2600E+02
     -2.746  0.3763E-02  0.2600E+02
     -2.619  0.8483E+01  0.2708E+02
     -2.492  0.7270E+01  0.2800E+02
     -2.365  0.1791E-02  0.2800E+02
     -2.238  0.2701E-11  0.2800E+02
     -2.111  0.0000E+00  0.2800E+02
     -1.984  0.0000E+00  0.2800E+02
     -1.857  0.0000E+00  0.2800E+02
     -1.731  0.0000E+00  0.2800E+02
     -1.604  0.0000E+00  0.2800E+02
     -1.477  0.0000E+00  0.2800E+02
     -1.350  0.0000E+00  0.2800E+02
     -1.223  0.0000E+00  0.2800E+02
     -1.096  0.0000E+00  0.2800E+02
     -0.969  0.0000E+00  0.2800E+02
     -0.842  0.0000E+00  0.2800E+02
     -0.715  0.0000E+00  0.2800E+02
     -0.588  0.0000E+00  0.2800E+02
     -0.461  0.3603E-08  0.2800E+02
     -0.334  0.6469E-01  0.2801E+02
     -0.208  0.1298E+02  0.2966E+02
     -0.081  0.2710E+01  0.3000E+02
      0.046  0.4512E-04  0.3000E+02
      0.173  0.1540E-03  0.3000E+02
      0.300  0.3937E+01  0.3050E+02
      0.427  0.2500E+02  0.3367E+02
      0.554  0.1817E+02  0.3598E+02
      0.681  0.1763E+00  0.3600E+02
      0.808  0.3348E-07  0.3600E+02
      0.935  0.0000E+00  0.3600E+02
      1.062  0.0000E+00  0.3600E+02
      1.189  0.0000E+00  0.3600E+02
      1.315  0.0000E+00  0.3600E+02
      1.442  0.0000E+00  0.3600E+02
      1.569  0.0000E+00  0.3600E+02
      1.696  0.0000E+00  0.3600E+02
      1.823  0.0000E+00  0.3600E+02
      1.950  0.0000E+00  0.3600E+02
      2.077  0.0000E+00  0.3600E+02
      2.204  0.0000E+00  0.3600E+02
