    4    4    1    1
  0.7621563E+03  0.1450000E-08  0.1450000E-08  0.1450000E-08  0.5000000E-15
   1.0000000000000000E-004
  CAR 
 NiAl                                    
     24      1     18
 
  0.1262379E-14  0.1262379E-14  0.1262379E-14  0.1000000E+01
      1        -34.140850   1.000000
      2        -31.727217   1.000000
      3        -21.555514   1.000000
      4        -18.624534   1.000000
      5        -15.751236   1.000000
      6        -13.868833   1.000000
      7        -13.727032   1.000000
      8        -12.497587   1.000000
      9        -11.958451   1.000000
     10         -8.856858   1.000000
     11         -7.945668   1.000000
     12         -6.699006   1.000000
     13         -5.088474   0.000000
     14         -2.622423   0.000000
     15         -0.241019   0.000000
     16          0.324166   0.000000
     17          0.404070   0.000000
     18          0.473186   0.000000
