       N       E                     dE             d eps       ncg     rms          rms(c)
DAV:   1     0.172593585780E+03    0.17259E+03   -0.48756E+03    60   0.514E+02
DAV:   2     0.323416546152E+02   -0.14025E+03   -0.13773E+03    66   0.167E+02
DAV:   3    -0.102188210823E+02   -0.42560E+02   -0.34952E+02    60   0.806E+01
DAV:   4    -0.184173622879E+02   -0.81985E+01   -0.81776E+01    48   0.234E+01
DAV:   5    -0.186905326137E+02   -0.27317E+00   -0.26890E+00    36   0.719E+00    0.649E+01
DAV:   6    -0.181882473172E+02    0.50229E+00   -0.87093E-01    60   0.800E+00    0.402E+01
DAV:   7    -0.181857105158E+02    0.25368E-02   -0.91220E-01    42   0.841E+00    0.145E+00
DAV:   8    -0.181678800217E+02    0.17830E-01   -0.13638E-01    48   0.353E+00    0.609E-01
DAV:   9    -0.181683948941E+02   -0.51487E-03   -0.32593E-03    42   0.498E-01    0.204E-01
DAV:  10    -0.181687106322E+02   -0.31574E-03   -0.18265E-04    48   0.125E-01    0.107E-01
DAV:  11    -0.181688929192E+02   -0.18229E-03   -0.21611E-05    42   0.450E-02    0.146E-02
DAV:  12    -0.181690385068E+02   -0.14559E-03   -0.12158E-05    60   0.234E-02    0.995E-03
DAV:  13    -0.181692267101E+02   -0.18820E-03   -0.10937E-05    48   0.155E-02    0.452E-03
DAV:  14    -0.181693200261E+02   -0.93316E-04   -0.60332E-06    48   0.101E-02    0.365E-03
DAV:  15    -0.181693868954E+02   -0.66869E-04   -0.24164E-06    54   0.714E-03    0.454E-03
DAV:  16    -0.181694290861E+02   -0.42191E-04   -0.86871E-07    48   0.469E-03    0.711E-04
DAV:  17    -0.181694472392E+02   -0.18153E-04   -0.15763E-07    42   0.231E-03    0.412E-04
DAV:  18    -0.181694585479E+02   -0.11309E-04   -0.11755E-07    42   0.187E-03    0.473E-04
DAV:  19    -0.181694606145E+02   -0.20666E-05   -0.86672E-09    36   0.727E-04    0.148E-04
DAV:  20    -0.181694611125E+02   -0.49794E-06   -0.69288E-09    36   0.700E-04    0.757E-05
DAV:  21    -0.181694611591E+02   -0.46598E-07   -0.29706E-09    36   0.432E-04
   1 F= -.18209782E+02 E0= -.18209782E+02  d E =-.102082E-15
