<?xml version="1.0" encoding="ISO-8859-1"?>
<modeling>
 <generator>
  <i name="program" type="string">vasp </i>
  <i name="version" type="string">6.3.1  </i>
  <i name="subversion" type="string">04May22 (build Jun 29 2022 13:52:15) complex                          parallel </i>
  <i name="platform" type="string">LinuxNV </i>
  <i name="date" type="string">2022 10 05 </i>
  <i name="time" type="string">18:22:16 </i>
 </generator>
 <incar>
  <i type="string" name="SYSTEM">NiAl</i>
  <i type="int" name="ISTART">     0</i>
  <i type="int" name="NELMIN">     6</i>
  <i name="EDIFF">      0.00000010</i>
  <i name="ENCUT">    360.00000000</i>
  <i type="string" name="LREAL">Auto</i>
  <i type="logical" name="LPLANE"> T  </i>
  <i type="int" name="ISMEAR">     0</i>
  <i name="SIGMA">      0.05000000</i>
  <i type="logical" name="LWAVE"> F  </i>
  <i type="logical" name="LCHARG"> F  </i>
  <i type="int" name="IVDW">    12</i>
 </incar>
 <primitive_cell>
  <structure name="primitive_cell" >
   <crystal>
    <varray name="basis" >
     <v>      14.50000000       0.00000000       0.00000000 </v>
     <v>       0.00000000      14.50000000       0.00000000 </v>
     <v>       0.00000000       0.00000000      14.50000000 </v>
    </varray>
    <i name="volume">   3048.62500000 </i>
    <varray name="rec_basis" >
     <v>       0.06896552       0.00000000       0.00000000 </v>
     <v>       0.00000000       0.06896552       0.00000000 </v>
     <v>       0.00000000       0.00000000       0.06896552 </v>
    </varray>
   </crystal>
   <varray name="positions" >
    <v>       0.00000000       0.00000000       0.00000000 </v>
    <v>       0.08324138       0.00000000       0.00000000 </v>
    <v>       0.00000000       0.00000000       0.12068966 </v>
    <v>       0.08324138       0.00000000       0.12068966 </v>
   </varray>
  </structure>
  <varray name="primitive_index" >
   <v type="int" >        1 </v>
   <v type="int" >        2 </v>
   <v type="int" >        3 </v>
   <v type="int" >        4 </v>
  </varray>
 </primitive_cell>
 <kpoints>
  <generation param="Gamma">
   <v type="int" name="divisions">       1        1        1 </v>
   <v name="usershift">      0.00000000       0.00000000       0.00000000 </v>
   <v name="genvec1">      1.00000000       0.00000000       0.00000000 </v>
   <v name="genvec2">      0.00000000       1.00000000       0.00000000 </v>
   <v name="genvec3">      0.00000000       0.00000000       1.00000000 </v>
   <v name="shift">      0.00000000       0.00000000       0.00000000 </v>
  </generation>
  <varray name="kpointlist" >
   <v>       0.00000000       0.00000000       0.00000000 </v>
  </varray>
  <varray name="weights" >
   <v>       1.00000000 </v>
  </varray>
 </kpoints>
 <parameters>
  <separator name="general" >
   <i type="string" name="SYSTEM">NiAl</i>
   <i type="logical" name="LCOMPAT"> F  </i>
  </separator>
  <separator name="electronic" >
   <i type="string" name="PREC">normal</i>
   <i name="ENMAX">    360.00000000</i>
   <i name="ENAUG">   1139.60900000</i>
   <i name="EDIFF">      0.00000010</i>
   <i type="int" name="IALGO">    38</i>
   <i type="int" name="IWAVPR">    10</i>
   <i type="int" name="NBANDS">    18</i>
   <i type="int" name="NBANDSLOW">    -1</i>
   <i type="int" name="NBANDSHIGH">    -1</i>
   <i name="NELECT">     24.00000000</i>
   <i type="int" name="TURBO">     0</i>
   <i type="int" name="IRESTART">     0</i>
   <i type="int" name="NREBOOT">     0</i>
   <i type="int" name="NMIN">     0</i>
   <i name="EREF">      0.00000000</i>
   <separator name="electronic smearing" >
    <i type="int" name="ISMEAR">     0</i>
    <i name="SIGMA">      0.05000000</i>
    <i name="KSPACING">      0.50000000</i>
    <i type="logical" name="KGAMMA"> T  </i>
    <i type="logical" name="KBLOWUP"> T  </i>
   </separator>
   <separator name="electronic projectors" >
    <i type="logical" name="LREAL"> T  </i>
    <v name="ROPT">     -0.00050000</v>
    <i type="int" name="LMAXPAW">  -100</i>
    <i type="int" name="LMAXMIX">     2</i>
    <i type="logical" name="NLSPLINE"> F  </i>
   </separator>
   <separator name="electronic startup" >
    <i type="int" name="ISTART">     0</i>
    <i type="int" name="ICHARG">     2</i>
    <i type="int" name="INIWAV">     1</i>
   </separator>
   <separator name="electronic spin" >
    <i type="int" name="ISPIN">     1</i>
    <i type="logical" name="LNONCOLLINEAR"> F  </i>
    <v name="MAGMOM">      1.00000000      1.00000000      1.00000000      1.00000000</v>
    <i name="NUPDOWN">     -1.00000000</i>
    <i type="logical" name="LSORBIT"> F  </i>
    <v name="SAXIS">      0.00000000      0.00000000      1.00000000</v>
    <i type="logical" name="LSPIRAL"> F  </i>
    <v name="QSPIRAL">      0.00000000      0.00000000      0.00000000</v>
    <i type="logical" name="LZEROZ"> F  </i>
   </separator>
   <separator name="electronic exchange-correlation" >
    <i type="logical" name="LASPH"> F  </i>
    <i type="logical" name="LMETAGGA"> F  </i>
   </separator>
   <separator name="electronic convergence" >
    <i type="int" name="NELM">    60</i>
    <i type="int" name="NELMDL">    -5</i>
    <i type="int" name="NELMIN">     6</i>
    <i name="ENINI">    360.00000000</i>
    <separator name="electronic convergence detail" >
     <i type="logical" name="LDIAG"> T  </i>
     <i type="logical" name="LSUBROT"> F  </i>
     <i name="WEIMIN">      0.00000000</i>
     <i name="EBREAK">      0.00000000</i>
     <i name="DEPER">      0.30000000</i>
     <i type="int" name="NRMM">     4</i>
     <i name="TIME">      0.40000000</i>
    </separator>
   </separator>
   <separator name="electronic mixer" >
    <i name="AMIX">      0.40000000</i>
    <i name="BMIX">      1.00000000</i>
    <i name="AMIN">      0.10000000</i>
    <i name="AMIX_MAG">      1.60000000</i>
    <i name="BMIX_MAG">      1.00000000</i>
    <separator name="electronic mixer details" >
     <i type="int" name="IMIX">     4</i>
     <i type="logical" name="MIXFIRST"> F  </i>
     <i type="int" name="MAXMIX">   -45</i>
     <i name="WC">    100.00000000</i>
     <i type="int" name="INIMIX">     1</i>
     <i type="int" name="MIXPRE">     1</i>
     <i type="int" name="MREMOVE">     5</i>
    </separator>
   </separator>
   <separator name="electronic dipolcorrection" >
    <i type="logical" name="LDIPOL"> F  </i>
    <i type="logical" name="LMONO"> F  </i>
    <i type="int" name="IDIPOL">     0</i>
    <i name="EPSILON">      1.00000000</i>
    <v name="DIPOL">   -100.00000000   -100.00000000   -100.00000000</v>
    <i name="EFIELD">      0.00000000</i>
   </separator>
  </separator>
  <separator name="grids" >
   <i type="int" name="NGX">    70</i>
   <i type="int" name="NGY">    70</i>
   <i type="int" name="NGZ">    70</i>
   <i type="int" name="NGXF">   140</i>
   <i type="int" name="NGYF">   140</i>
   <i type="int" name="NGZF">   140</i>
   <i type="logical" name="ADDGRID"> F  </i>
  </separator>
  <separator name="ionic" >
   <i type="int" name="NSW">     0</i>
   <i type="int" name="IBRION">    -1</i>
   <i type="int" name="MDALGO">     0</i>
   <i type="int" name="ISIF">     2</i>
   <i name="PSTRESS">      0.00000000</i>
   <i name="EDIFFG">      0.00000100</i>
   <i type="int" name="NFREE">     0</i>
   <i name="POTIM">      0.50000000</i>
   <i name="SMASS">     -3.00000000</i>
   <i name="SCALEE">      1.00000000</i>
  </separator>
  <separator name="ionic md" >
   <i name="TEBEG">      0.00010000</i>
   <i name="TEEND">      0.00010000</i>
   <i type="int" name="NBLOCK">     1</i>
   <i type="int" name="KBLOCK">     1</i>
   <i type="int" name="NPACO">   256</i>
   <i name="APACO">     10.00000000</i>
  </separator>
  <separator name="symmetry" >
   <i type="int" name="ISYM">     2</i>
   <i name="SYMPREC">      0.00001000</i>
  </separator>
  <separator name="dos" >
   <i type="int" name="LORBIT">     0</i>
   <v name="RWIGS">     -1.00000000</v>
   <i type="int" name="NEDOS">   301</i>
   <i name="EMIN">     10.00000000</i>
   <i name="EMAX">    -10.00000000</i>
   <i name="EFERMI">      0.00000000</i>
  </separator>
  <separator name="writing" >
   <i type="int" name="NWRITE">     2</i>
   <i type="logical" name="LWAVE"> F  </i>
   <i type="logical" name="LDOWNSAMPLE"> F  </i>
   <i type="logical" name="LCHARG"> F  </i>
   <i type="logical" name="LPARD"> F  </i>
   <i type="logical" name="LVTOT"> F  </i>
   <i type="logical" name="LVHAR"> F  </i>
   <i type="logical" name="LELF"> F  </i>
   <i type="logical" name="LOPTICS"> F  </i>
   <v name="STM">      0.00000000      0.00000000      0.00000000      0.00000000      0.00000000      0.00000000      0.00000000</v>
  </separator>
  <separator name="performance" >
   <i type="int" name="NPAR">     6</i>
   <i type="int" name="NSIM">     4</i>
   <i type="int" name="NBLK">    -1</i>
   <i type="logical" name="LPLANE"> T  </i>
   <i type="logical" name="LSCALAPACK"> T  </i>
   <i type="logical" name="LSCAAWARE"> F  </i>
   <i type="logical" name="LSCALU"> F  </i>
   <i type="logical" name="LASYNC"> F  </i>
   <i type="logical" name="LORBITALREAL"> F  </i>
  </separator>
  <separator name="miscellaneous" >
   <i type="int" name="IDIOT">     3</i>
   <i type="int" name="PHON_NSTRUCT">    -1</i>
   <i type="logical" name="LMUSIC"> F  </i>
   <v name="POMASS">     16.00000000</v>
   <v name="DARWINR">      0.00000000</v>
   <v name="DARWINV">      1.00000000</v>
   <i type="logical" name="LCORR"> T  </i>
  </separator>
  <i type="logical" name="GGA_COMPAT"> T  </i>
  <i type="logical" name="LBERRY"> F  </i>
  <i type="int" name="ICORELEVEL">     0</i>
  <i type="logical" name="LDAU"> F  </i>
  <i type="int" name="I_CONSTRAINED_M">     0</i>
  <separator name="electronic exchange-correlation" >
   <i type="string" name="GGA">--</i>
   <i type="int" name="VOSKOWN">     0</i>
   <i type="logical" name="LHFCALC"> F  </i>
   <i type="string" name="PRECFOCK"></i>
   <i type="logical" name="LSYMGRAD"> F  </i>
   <i type="logical" name="LHFONE"> F  </i>
   <i type="logical" name="LRHFCALC"> F  </i>
   <i type="logical" name="LTHOMAS"> F  </i>
   <i type="logical" name="LMODELHF"> F  </i>
   <i type="logical" name="LFOCKACE"> F  </i>
   <i name="ENCUT4O">     -1.00000000</i>
   <i type="int" name="EXXOEP">     0</i>
   <i type="int" name="FOURORBIT">     0</i>
   <i name="AEXX">      0.00000000</i>
   <i name="HFALPHA">      0.00000000</i>
   <i name="MCALPHA">      0.00000000</i>
   <i name="ALDAX">      1.00000000</i>
   <i name="AGGAX">      1.00000000</i>
   <i name="ALDAC">      1.00000000</i>
   <i name="AGGAC">      1.00000000</i>
   <i type="int" name="NKREDX">     1</i>
   <i type="int" name="NKREDY">     1</i>
   <i type="int" name="NKREDZ">     1</i>
   <i type="logical" name="SHIFTRED"> F  </i>
   <i type="logical" name="ODDONLY"> F  </i>
   <i type="logical" name="EVENONLY"> F  </i>
   <i type="int" name="LMAXFOCK">     0</i>
   <i type="int" name="NMAXFOCKAE">     0</i>
   <i type="logical" name="LFOCKAEDFT"> F  </i>
   <i name="HFSCREEN">      0.00000000</i>
   <i name="HFSCREENC">      0.00000000</i>
   <i type="int" name="NBANDSGWLOW">     0</i>
  </separator>
  <separator name="vdW DFT" >
   <i type="logical" name="LUSE_VDW"> F  </i>
   <i name="Zab_VDW">     -0.84910000</i>
   <i name="PARAM1">      0.12340000</i>
   <i name="PARAM2">      1.00000000</i>
   <i name="PARAM3">      0.00000000</i>
  </separator>
  <separator name="model GW" >
   <i type="int" name="MODEL_GW">     0</i>
   <i name="MODEL_EPS0">    457.29375000</i>
   <i name="MODEL_ALPHA">      1.00000000</i>
  </separator>
  <separator name="linear response parameters" >
   <i type="logical" name="LEPSILON"> F  </i>
   <i type="logical" name="LRPA"> F  </i>
   <i type="logical" name="LNABLA"> F  </i>
   <i type="logical" name="LVEL"> F  </i>
   <i name="CSHIFT">      0.10000000</i>
   <i name="OMEGAMAX">     -1.00000000</i>
   <i name="DEG_THRESHOLD">      0.00200000</i>
   <i name="RTIME">     -0.10000000</i>
   <i name="WPLASMAI">      0.00000000</i>
   <v name="DFIELD">      0.00000000      0.00000000      0.00000000</v>
   <v name="WPLASMA">      0.00000000      0.00000000      0.00000000      0.00000000      0.00000000      0.00000000      0.00000000      0.00000000      0.00000000</v>
  </separator>
  <separator name="orbital magnetization" >
   <i type="logical" name="NUCIND"> F  </i>
   <v name="MAGPOS">      0.00000000      0.00000000      0.00000000</v>
   <i type="logical" name="LNICSALL"> T  </i>
   <i type="logical" name="ORBITALMAG"> F  </i>
   <i type="logical" name="LMAGBLOCH"> F  </i>
   <i type="logical" name="LCHIMAG"> F  </i>
   <i type="logical" name="LGAUGE"> T  </i>
   <i type="int" name="MAGATOM">     0</i>
   <v name="MAGDIPOL">      0.00000000      0.00000000      0.00000000</v>
   <v name="AVECCONST">      0.00000000      0.00000000      0.00000000</v>
  </separator>
  <separator name="response functions" >
   <i type="logical" name="LFINITE_TEMPERATURE"> F  </i>
   <i type="logical" name="LADDER"> F  </i>
   <i type="logical" name="LRPAFORCE"> F  </i>
   <i type="logical" name="LFXC"> F  </i>
   <i type="logical" name="LHARTREE"> T  </i>
   <i type="int" name="IBSE">     0</i>
   <v type="int" name="KPOINT">    -1     0     0     0</v>
   <i type="logical" name="LTCTC"> F  </i>
   <i type="logical" name="LTCTE"> F  </i>
   <i type="logical" name="LTETE"> F  </i>
   <i type="logical" name="LTRIPLET"> F  </i>
   <i type="logical" name="LFXCEPS"> F  </i>
   <i type="logical" name="LFXHEG"> F  </i>
   <i type="int" name="NATURALO">     2</i>
   <i type="logical" name="LHOLEGF"> F  </i>
   <i type="logical" name="L2ORDER"> F  </i>
   <i type="logical" name="LDMP1"> F  </i>
   <i type="logical" name="LMP2LT"> F  </i>
   <i type="logical" name="LSMP2LT"> F  </i>
   <i type="logical" name="LGWLF"> F  </i>
   <i name="ENCUTGW">     -2.00000000</i>
   <i name="ENCUTGWSOFT">     -2.00000000</i>
   <i name="ENCUTLF">     -1.00000000</i>
   <i type="logical" name="LESF_SPLINES"> F  </i>
   <i type="int" name="LMAXMP2">    -1</i>
   <i name="SCISSOR">      0.00000000</i>
   <i type="int" name="NOMEGA">     0</i>
   <i type="int" name="NOMEGAR">     0</i>
   <i type="int" name="NBANDSGW">    -1</i>
   <i type="int" name="NBANDSO">    -1</i>
   <i type="int" name="NBANDSV">    -1</i>
   <i type="int" name="NELMGW">     1</i>
   <i type="int" name="NELMHF">     1</i>
   <i type="int" name="DIM">     3</i>
   <i type="int" name="IESPILON">     4</i>
   <i type="int" name="ANTIRES">     0</i>
   <i name="OMEGAMAX">    -30.00000000</i>
   <i name="OMEGAMIN">    -30.00000000</i>
   <i name="OMEGATL">   -200.00000000</i>
   <i type="int" name="OMEGAGRID">     0</i>
   <i name="CSHIFT">     -0.10000000</i>
   <i type="logical" name="LSELFENERGY"> F  </i>
   <i type="logical" name="LSPECTRAL"> F  </i>
   <i type="logical" name="LSPECTRALGW"> F  </i>
   <i type="logical" name="LSINGLES"> F  </i>
   <i type="logical" name="LFERMIGW"> F  </i>
   <i type="logical" name="ODDONLYGW"> F  </i>
   <i type="logical" name="EVENONLYGW"> F  </i>
   <i type="int" name="NKREDLFX">     1</i>
   <i type="int" name="NKREDLFY">     1</i>
   <i type="int" name="NKREDLFZ">     1</i>
   <i type="int" name="MAXMEM">  2800</i>
   <i type="int" name="TELESCOPE">     0</i>
   <i type="int" name="NTAUPAR">    -1</i>
   <i type="int" name="NOMEGAPAR">    -1</i>
   <i name="DAMP_NEWTON">      0.80000001</i>
   <i name="LAMBDA">      1.00000000</i>
  </separator>
  <separator name="External order field" >
   <i name="OFIELD_KAPPA">      0.00000000</i>
   <v name="OFIELD_K">      0.00000000      0.00000000      0.00000000</v>
   <i name="OFIELD_Q6_NEAR">      0.00000000</i>
   <i name="OFIELD_Q6_FAR">      0.00000000</i>
   <i name="OFIELD_A">      0.00000000</i>
  </separator>
  <separator name="optional k-points parameters" >
   <i type="int" name="KPOINTS_OPT_MODE">     1</i>
   <i type="logical" name="LKPOINTS_OPT"> F  </i>
  </separator>
 </parameters>
 <atominfo>
  <atoms>       4 </atoms>
  <types>       1 </types>
  <array name="atoms" >
   <dimension dim="1">ion</dimension>
   <field type="string">element</field>
   <field type="int">atomtype</field>
   <set>
    <rc><c>O </c><c>   1</c></rc>
    <rc><c>O </c><c>   1</c></rc>
    <rc><c>O </c><c>   1</c></rc>
    <rc><c>O </c><c>   1</c></rc>
   </set>
  </array>
  <array name="atomtypes" >
   <dimension dim="1">type</dimension>
   <field type="int">atomspertype</field>
   <field type="string">element</field>
   <field>mass</field>
   <field>valence</field>
   <field type="string">pseudopotential</field>
   <set>
    <rc><c>   4</c><c>O </c><c>     16.00000000</c><c>      6.00000000</c><c>  PAW O_GW 19Mar2012                    </c></rc>
   </set>
  </array>
 </atominfo>
 <structure name="initialpos" >
  <crystal>
   <varray name="basis" >
    <v>      14.50000000       0.00000000       0.00000000 </v>
    <v>       0.00000000      14.50000000       0.00000000 </v>
    <v>       0.00000000       0.00000000      14.50000000 </v>
   </varray>
   <i name="volume">   3048.62500000 </i>
   <varray name="rec_basis" >
    <v>       0.06896552       0.00000000       0.00000000 </v>
    <v>       0.00000000       0.06896552       0.00000000 </v>
    <v>       0.00000000       0.00000000       0.06896552 </v>
   </varray>
  </crystal>
  <varray name="positions" >
   <v>       0.00000000       0.00000000       0.00000000 </v>
   <v>       0.08324138       0.00000000       0.00000000 </v>
   <v>       0.00000000       0.00000000       0.12068966 </v>
   <v>       0.08324138       0.00000000       0.12068966 </v>
  </varray>
 </structure>
 <calculation>
  <scstep>
   <time name="dav">   12.80    6.21</time>
   <time name="total">   16.30    8.23</time>
   <energy>
    <i name="alphaZ">      0.35861207 </i>
    <i name="ewald">   1134.11425768 </i>
    <i name="hartreedc">  -2582.38093072 </i>
    <i name="XCdc">    103.77778977 </i>
    <i name="pawpsdc">   1396.60603497 </i>
    <i name="pawaedc">  -1393.39258355 </i>
    <i name="eentropy">     -0.00000000 </i>
    <i name="bandstr">   -214.43963672 </i>
    <i name="atom">   1727.95004229 </i>
    <i name="e_fr_energy">    172.59358578 </i>
    <i name="e_wo_entrp">    172.59358578 </i>
    <i name="e_0_energy">    172.59358578 </i>
   </energy>
  </scstep>
  <scstep>
   <time name="dav">   15.31    7.23</time>
   <time name="total">   15.31    7.23</time>
   <energy>
    <i name="e_fr_energy">     32.34165462 </i>
    <i name="e_wo_entrp">     32.34165462 </i>
    <i name="e_0_energy">     32.34165462 </i>
   </energy>
  </scstep>
  <scstep>
   <time name="dav">   13.60    6.68</time>
   <time name="total">   13.60    6.68</time>
   <energy>
    <i name="e_fr_energy">    -10.21882108 </i>
    <i name="e_wo_entrp">    -10.21882108 </i>
    <i name="e_0_energy">    -10.21882108 </i>
   </energy>
  </scstep>
  <scstep>
   <time name="dav">   11.53    5.50</time>
   <time name="total">   11.53    5.50</time>
   <energy>
    <i name="e_fr_energy">    -18.41736229 </i>
    <i name="e_wo_entrp">    -18.41736229 </i>
    <i name="e_0_energy">    -18.41736229 </i>
   </energy>
  </scstep>
  <scstep>
   <time name="dav">    9.91    4.64</time>
   <time name="total">   11.72    5.53</time>
   <energy>
    <i name="e_fr_energy">    -18.69053261 </i>
    <i name="e_wo_entrp">    -18.69053261 </i>
    <i name="e_0_energy">    -18.69053261 </i>
   </energy>
  </scstep>
  <scstep>
   <time name="dav">   14.05    6.85</time>
   <time name="total">   19.52    9.66</time>
   <energy>
    <i name="e_fr_energy">    -18.18824732 </i>
    <i name="e_wo_entrp">    -18.18824732 </i>
    <i name="e_0_energy">    -18.18824732 </i>
   </energy>
  </scstep>
  <scstep>
   <time name="dav">    9.98    4.96</time>
   <time name="total">   16.08    7.97</time>
   <energy>
    <i name="e_fr_energy">    -18.18571052 </i>
    <i name="e_wo_entrp">    -18.18571052 </i>
    <i name="e_0_energy">    -18.18571052 </i>
   </energy>
  </scstep>
  <scstep>
   <time name="dav">   12.44    5.86</time>
   <time name="total">   18.09    8.94</time>
   <energy>
    <i name="e_fr_energy">    -18.16788002 </i>
    <i name="e_wo_entrp">    -18.16788002 </i>
    <i name="e_0_energy">    -18.16788002 </i>
   </energy>
  </scstep>
  <scstep>
   <time name="dav">   10.57    5.08</time>
   <time name="total">   15.97    7.89</time>
   <energy>
    <i name="e_fr_energy">    -18.16839489 </i>
    <i name="e_wo_entrp">    -18.16839489 </i>
    <i name="e_0_energy">    -18.16839489 </i>
   </energy>
  </scstep>
  <scstep>
   <time name="dav">   11.15    5.45</time>
   <time name="total">   16.77    8.28</time>
   <energy>
    <i name="e_fr_energy">    -18.16871063 </i>
    <i name="e_wo_entrp">    -18.16871063 </i>
    <i name="e_0_energy">    -18.16871063 </i>
   </energy>
  </scstep>
  <scstep>
   <time name="dav">   10.07    4.96</time>
   <time name="total">   15.08    7.54</time>
   <energy>
    <i name="e_fr_energy">    -18.16889292 </i>
    <i name="e_wo_entrp">    -18.16889292 </i>
    <i name="e_0_energy">    -18.16889292 </i>
   </energy>
  </scstep>
  <scstep>
   <time name="dav">   14.31    6.78</time>
   <time name="total">   19.92    9.72</time>
   <energy>
    <i name="e_fr_energy">    -18.16903851 </i>
    <i name="e_wo_entrp">    -18.16903851 </i>
    <i name="e_0_energy">    -18.16903851 </i>
   </energy>
  </scstep>
  <scstep>
   <time name="dav">   11.72    5.65</time>
   <time name="total">   17.39    8.54</time>
   <energy>
    <i name="e_fr_energy">    -18.16922671 </i>
    <i name="e_wo_entrp">    -18.16922671 </i>
    <i name="e_0_energy">    -18.16922671 </i>
   </energy>
  </scstep>
  <scstep>
   <time name="dav">   11.61    5.44</time>
   <time name="total">   17.98    8.35</time>
   <energy>
    <i name="e_fr_energy">    -18.16932003 </i>
    <i name="e_wo_entrp">    -18.16932003 </i>
    <i name="e_0_energy">    -18.16932003 </i>
   </energy>
  </scstep>
  <scstep>
   <time name="dav">   12.49    5.96</time>
   <time name="total">   18.20    9.05</time>
   <energy>
    <i name="e_fr_energy">    -18.16938690 </i>
    <i name="e_wo_entrp">    -18.16938690 </i>
    <i name="e_0_energy">    -18.16938690 </i>
   </energy>
  </scstep>
  <scstep>
   <time name="dav">   10.83    5.52</time>
   <time name="total">   16.04    8.38</time>
   <energy>
    <i name="e_fr_energy">    -18.16942909 </i>
    <i name="e_wo_entrp">    -18.16942909 </i>
    <i name="e_0_energy">    -18.16942909 </i>
   </energy>
  </scstep>
  <scstep>
   <time name="dav">   11.04    5.12</time>
   <time name="total">   16.72    8.09</time>
   <energy>
    <i name="e_fr_energy">    -18.16944724 </i>
    <i name="e_wo_entrp">    -18.16944724 </i>
    <i name="e_0_energy">    -18.16944724 </i>
   </energy>
  </scstep>
  <scstep>
   <time name="dav">    9.80    4.80</time>
   <time name="total">   15.44    7.67</time>
   <energy>
    <i name="e_fr_energy">    -18.16945855 </i>
    <i name="e_wo_entrp">    -18.16945855 </i>
    <i name="e_0_energy">    -18.16945855 </i>
   </energy>
  </scstep>
  <scstep>
   <time name="dav">    9.31    4.65</time>
   <time name="total">   14.36    7.27</time>
   <energy>
    <i name="e_fr_energy">    -18.16946061 </i>
    <i name="e_wo_entrp">    -18.16946061 </i>
    <i name="e_0_energy">    -18.16946061 </i>
   </energy>
  </scstep>
  <scstep>
   <time name="dav">   10.35    5.01</time>
   <time name="total">   15.97    8.02</time>
   <energy>
    <i name="e_fr_energy">    -18.16946111 </i>
    <i name="e_wo_entrp">    -18.16946111 </i>
    <i name="e_0_energy">    -18.16946111 </i>
   </energy>
  </scstep>
  <scstep>
   <time name="dav">    9.50    4.75</time>
   <time name="total">   13.49    6.77</time>
   <energy>
    <i name="alphaZ">      0.35861207 </i>
    <i name="ewald">   1134.11425768 </i>
    <i name="hartreedc">  -2593.67241017 </i>
    <i name="XCdc">    104.95409224 </i>
    <i name="pawpsdc">   5143.20206489 </i>
    <i name="pawaedc">  -5140.37055076 </i>
    <i name="eentropy">     -0.00000000 </i>
    <i name="bandstr">   -394.70556940 </i>
    <i name="atom">   1727.95004229 </i>
    <i name="e_fr_energy">    -18.16946116 </i>
    <i name="e_wo_entrp">    -18.16946116 </i>
    <i name="e_0_energy">    -18.16946116 </i>
   </energy>
  </scstep>
  <structure>
   <crystal>
    <varray name="basis" >
     <v>      14.50000000       0.00000000       0.00000000 </v>
     <v>       0.00000000      14.50000000       0.00000000 </v>
     <v>       0.00000000       0.00000000      14.50000000 </v>
    </varray>
    <i name="volume">   3048.62500000 </i>
    <varray name="rec_basis" >
     <v>       0.06896552       0.00000000       0.00000000 </v>
     <v>       0.00000000       0.06896552       0.00000000 </v>
     <v>       0.00000000       0.00000000       0.06896552 </v>
    </varray>
   </crystal>
   <varray name="positions" >
    <v>       0.00000000       0.00000000       0.00000000 </v>
    <v>       0.08324138       0.00000000       0.00000000 </v>
    <v>       0.00000000       0.00000000       0.12068966 </v>
    <v>       0.08324138       0.00000000       0.12068966 </v>
   </varray>
  </structure>
  <varray name="forces" >
   <v>      -3.61023730      -0.00000000      -2.77776056 </v>
   <v>       3.61023730       0.00000000      -2.77776056 </v>
   <v>      -3.61023730      -0.00000000       2.77776056 </v>
   <v>       3.61023730       0.00000000       2.77776056 </v>
  </varray>
  <varray name="stress" >
   <v>      -3.66337682       0.00000000       0.00000000 </v>
   <v>       0.00000000      -7.44629232       0.00000000 </v>
   <v>      -0.00000000       0.00000000      -3.03113749 </v>
  </varray>
  <energy>
   <i name="e_fr_energy">    -18.20978205 </i>
   <i name="e_wo_entrp">    -18.20978205 </i>
   <i name="e_0_energy">    -18.20978205 </i>
  </energy>
  <time name="totalsc">  351.56  173.27</time>
  <eigenvalues>
   <array>
    <dimension dim="1">band</dimension>
    <dimension dim="2">kpoint</dimension>
    <dimension dim="3">spin</dimension>
    <field>eigene</field>
    <field>occ</field>
    <set>
     <set comment="spin 1">
      <set comment="kpoint 1">
       <r>  -34.1408    1.0000 </r>
       <r>  -31.7272    1.0000 </r>
       <r>  -21.5555    1.0000 </r>
       <r>  -18.6245    1.0000 </r>
       <r>  -15.7512    1.0000 </r>
       <r>  -13.8688    1.0000 </r>
       <r>  -13.7270    1.0000 </r>
       <r>  -12.4976    1.0000 </r>
       <r>  -11.9585    1.0000 </r>
       <r>   -8.8569    1.0000 </r>
       <r>   -7.9457    1.0000 </r>
       <r>   -6.6990    1.0000 </r>
       <r>   -5.0885    0.0000 </r>
       <r>   -2.6224    0.0000 </r>
       <r>   -0.2410    0.0000 </r>
       <r>    0.3242    0.0000 </r>
       <r>    0.4041    0.0000 </r>
       <r>    0.4732    0.0000 </r>
      </set>
     </set>
    </set>
   </array>
  </eigenvalues>
  <separator name="orbital magnetization" >
   <v name="MAGDIPOLOUT">      0.00000000      0.00000000      0.00000000</v>
  </separator>
  <dos>
   <i name="efermi">     -6.41068004 </i>
   <total>
    <array>
     <dimension dim="1">gridpoints</dimension>
     <dimension dim="2">spin</dimension>
     <field>energy</field>
     <field>total</field>
     <field>integrated</field>
     <set>
      <set comment="spin 1">
       <r>   -35.8716     0.0000     0.0000 </r>
       <r>   -35.7446     0.0000     0.0000 </r>
       <r>   -35.6177     0.0000     0.0000 </r>
       <r>   -35.4908     0.0000     0.0000 </r>
       <r>   -35.3639     0.0000     0.0000 </r>
       <r>   -35.2370     0.0000     0.0000 </r>
       <r>   -35.1100     0.0000     0.0000 </r>
       <r>   -34.9831     0.0000     0.0000 </r>
       <r>   -34.8562     0.0000     0.0000 </r>
       <r>   -34.7293     0.0000     0.0000 </r>
       <r>   -34.6024     0.0000     0.0000 </r>
       <r>   -34.4755     0.0000     0.0000 </r>
       <r>   -34.3485     0.0000     0.0000 </r>
       <r>   -34.2216     0.1761     0.0223 </r>
       <r>   -34.0947    14.0712     1.8082 </r>
       <r>   -33.9678     1.5109     2.0000 </r>
       <r>   -33.8409     0.0000     2.0000 </r>
       <r>   -33.7139     0.0000     2.0000 </r>
       <r>   -33.5870     0.0000     2.0000 </r>
       <r>   -33.4601     0.0000     2.0000 </r>
       <r>   -33.3332     0.0000     2.0000 </r>
       <r>   -33.2063     0.0000     2.0000 </r>
       <r>   -33.0794     0.0000     2.0000 </r>
       <r>   -32.9524     0.0000     2.0000 </r>
       <r>   -32.8255     0.0000     2.0000 </r>
       <r>   -32.6986     0.0000     2.0000 </r>
       <r>   -32.5717     0.0000     2.0000 </r>
       <r>   -32.4448     0.0000     2.0000 </r>
       <r>   -32.3178     0.0000     2.0000 </r>
       <r>   -32.1909     0.0000     2.0000 </r>
       <r>   -32.0640     0.0000     2.0000 </r>
       <r>   -31.9371     0.0000     2.0000 </r>
       <r>   -31.8102     0.1494     2.0190 </r>
       <r>   -31.6833    13.9251     3.7863 </r>
       <r>   -31.5563     1.6837     4.0000 </r>
       <r>   -31.4294     0.0000     4.0000 </r>
       <r>   -31.3025     0.0000     4.0000 </r>
       <r>   -31.1756     0.0000     4.0000 </r>
       <r>   -31.0487     0.0000     4.0000 </r>
       <r>   -30.9217     0.0000     4.0000 </r>
       <r>   -30.7948     0.0000     4.0000 </r>
       <r>   -30.6679     0.0000     4.0000 </r>
       <r>   -30.5410     0.0000     4.0000 </r>
       <r>   -30.4141     0.0000     4.0000 </r>
       <r>   -30.2872     0.0000     4.0000 </r>
       <r>   -30.1602     0.0000     4.0000 </r>
       <r>   -30.0333     0.0000     4.0000 </r>
       <r>   -29.9064     0.0000     4.0000 </r>
       <r>   -29.7795     0.0000     4.0000 </r>
       <r>   -29.6526     0.0000     4.0000 </r>
       <r>   -29.5256     0.0000     4.0000 </r>
       <r>   -29.3987     0.0000     4.0000 </r>
       <r>   -29.2718     0.0000     4.0000 </r>
       <r>   -29.1449     0.0000     4.0000 </r>
       <r>   -29.0180     0.0000     4.0000 </r>
       <r>   -28.8911     0.0000     4.0000 </r>
       <r>   -28.7641     0.0000     4.0000 </r>
       <r>   -28.6372     0.0000     4.0000 </r>
       <r>   -28.5103     0.0000     4.0000 </r>
       <r>   -28.3834     0.0000     4.0000 </r>
       <r>   -28.2565     0.0000     4.0000 </r>
       <r>   -28.1295     0.0000     4.0000 </r>
       <r>   -28.0026     0.0000     4.0000 </r>
       <r>   -27.8757     0.0000     4.0000 </r>
       <r>   -27.7488     0.0000     4.0000 </r>
       <r>   -27.6219     0.0000     4.0000 </r>
       <r>   -27.4950     0.0000     4.0000 </r>
       <r>   -27.3680     0.0000     4.0000 </r>
       <r>   -27.2411     0.0000     4.0000 </r>
       <r>   -27.1142     0.0000     4.0000 </r>
       <r>   -26.9873     0.0000     4.0000 </r>
       <r>   -26.8604     0.0000     4.0000 </r>
       <r>   -26.7334     0.0000     4.0000 </r>
       <r>   -26.6065     0.0000     4.0000 </r>
       <r>   -26.4796     0.0000     4.0000 </r>
       <r>   -26.3527     0.0000     4.0000 </r>
       <r>   -26.2258     0.0000     4.0000 </r>
       <r>   -26.0989     0.0000     4.0000 </r>
       <r>   -25.9719     0.0000     4.0000 </r>
       <r>   -25.8450     0.0000     4.0000 </r>
       <r>   -25.7181     0.0000     4.0000 </r>
       <r>   -25.5912     0.0000     4.0000 </r>
       <r>   -25.4643     0.0000     4.0000 </r>
       <r>   -25.3373     0.0000     4.0000 </r>
       <r>   -25.2104     0.0000     4.0000 </r>
       <r>   -25.0835     0.0000     4.0000 </r>
       <r>   -24.9566     0.0000     4.0000 </r>
       <r>   -24.8297     0.0000     4.0000 </r>
       <r>   -24.7028     0.0000     4.0000 </r>
       <r>   -24.5758     0.0000     4.0000 </r>
       <r>   -24.4489     0.0000     4.0000 </r>
       <r>   -24.3220     0.0000     4.0000 </r>
       <r>   -24.1951     0.0000     4.0000 </r>
       <r>   -24.0682     0.0000     4.0000 </r>
       <r>   -23.9412     0.0000     4.0000 </r>
       <r>   -23.8143     0.0000     4.0000 </r>
       <r>   -23.6874     0.0000     4.0000 </r>
       <r>   -23.5605     0.0000     4.0000 </r>
       <r>   -23.4336     0.0000     4.0000 </r>
       <r>   -23.3067     0.0000     4.0000 </r>
       <r>   -23.1797     0.0000     4.0000 </r>
       <r>   -23.0528     0.0000     4.0000 </r>
       <r>   -22.9259     0.0000     4.0000 </r>
       <r>   -22.7990     0.0000     4.0000 </r>
       <r>   -22.6721     0.0000     4.0000 </r>
       <r>   -22.5451     0.0000     4.0000 </r>
       <r>   -22.4182     0.0000     4.0000 </r>
       <r>   -22.2913     0.0000     4.0000 </r>
       <r>   -22.1644     0.0000     4.0000 </r>
       <r>   -22.0375     0.0000     4.0000 </r>
       <r>   -21.9106     0.0000     4.0000 </r>
       <r>   -21.7836     0.0000     4.0000 </r>
       <r>   -21.6567     0.0331     4.0042 </r>
       <r>   -21.5298    12.0448     5.5329 </r>
       <r>   -21.4029     3.6801     6.0000 </r>
       <r>   -21.2760     0.0001     6.0000 </r>
       <r>   -21.1490     0.0000     6.0000 </r>
       <r>   -21.0221     0.0000     6.0000 </r>
       <r>   -20.8952     0.0000     6.0000 </r>
       <r>   -20.7683     0.0000     6.0000 </r>
       <r>   -20.6414     0.0000     6.0000 </r>
       <r>   -20.5145     0.0000     6.0000 </r>
       <r>   -20.3875     0.0000     6.0000 </r>
       <r>   -20.2606     0.0000     6.0000 </r>
       <r>   -20.1337     0.0000     6.0000 </r>
       <r>   -20.0068     0.0000     6.0000 </r>
       <r>   -19.8799     0.0000     6.0000 </r>
       <r>   -19.7529     0.0000     6.0000 </r>
       <r>   -19.6260     0.0000     6.0000 </r>
       <r>   -19.4991     0.0000     6.0000 </r>
       <r>   -19.3722     0.0000     6.0000 </r>
       <r>   -19.2453     0.0000     6.0000 </r>
       <r>   -19.1184     0.0000     6.0000 </r>
       <r>   -18.9914     0.0000     6.0000 </r>
       <r>   -18.8645     0.0000     6.0000 </r>
       <r>   -18.7376     0.0109     6.0014 </r>
       <r>   -18.6107    10.2691     7.3047 </r>
       <r>   -18.4838     5.4776     7.9999 </r>
       <r>   -18.3568     0.0005     8.0000 </r>
       <r>   -18.2299     0.0000     8.0000 </r>
       <r>   -18.1030     0.0000     8.0000 </r>
       <r>   -17.9761     0.0000     8.0000 </r>
       <r>   -17.8492     0.0000     8.0000 </r>
       <r>   -17.7223     0.0000     8.0000 </r>
       <r>   -17.5953     0.0000     8.0000 </r>
       <r>   -17.4684     0.0000     8.0000 </r>
       <r>   -17.3415     0.0000     8.0000 </r>
       <r>   -17.2146     0.0000     8.0000 </r>
       <r>   -17.0877     0.0000     8.0000 </r>
       <r>   -16.9607     0.0000     8.0000 </r>
       <r>   -16.8338     0.0000     8.0000 </r>
       <r>   -16.7069     0.0000     8.0000 </r>
       <r>   -16.5800     0.0000     8.0000 </r>
       <r>   -16.4531     0.0000     8.0000 </r>
       <r>   -16.3262     0.0000     8.0000 </r>
       <r>   -16.1992     0.0000     8.0000 </r>
       <r>   -16.0723     0.0000     8.0000 </r>
       <r>   -15.9454     0.0000     8.0000 </r>
       <r>   -15.8185     0.4503     8.0572 </r>
       <r>   -15.6916    14.5871     9.9085 </r>
       <r>   -15.5647     0.7208    10.0000 </r>
       <r>   -15.4377     0.0000    10.0000 </r>
       <r>   -15.3108     0.0000    10.0000 </r>
       <r>   -15.1839     0.0000    10.0000 </r>
       <r>   -15.0570     0.0000    10.0000 </r>
       <r>   -14.9301     0.0000    10.0000 </r>
       <r>   -14.8031     0.0000    10.0000 </r>
       <r>   -14.6762     0.0000    10.0000 </r>
       <r>   -14.5493     0.0000    10.0000 </r>
       <r>   -14.4224     0.0000    10.0000 </r>
       <r>   -14.2955     0.0000    10.0000 </r>
       <r>   -14.1686     0.0000    10.0000 </r>
       <r>   -14.0416     0.0000    10.0000 </r>
       <r>   -13.9147     1.5316    10.1944 </r>
       <r>   -13.7878    14.7291    12.0638 </r>
       <r>   -13.6609    14.7725    13.9387 </r>
       <r>   -13.5340     0.4832    14.0000 </r>
       <r>   -13.4070     0.0000    14.0000 </r>
       <r>   -13.2801     0.0000    14.0000 </r>
       <r>   -13.1532     0.0000    14.0000 </r>
       <r>   -13.0263     0.0000    14.0000 </r>
       <r>   -12.8994     0.0000    14.0000 </r>
       <r>   -12.7725     0.0000    14.0000 </r>
       <r>   -12.6455     0.0002    14.0000 </r>
       <r>   -12.5186     4.3490    14.5520 </r>
       <r>   -12.3917    11.3874    15.9973 </r>
       <r>   -12.2648     0.0216    16.0000 </r>
       <r>   -12.1379     0.0000    16.0000 </r>
       <r>   -12.0109     1.0844    16.1376 </r>
       <r>   -11.8840    14.3958    17.9647 </r>
       <r>   -11.7571     0.2780    18.0000 </r>
       <r>   -11.6302     0.0000    18.0000 </r>
       <r>   -11.5033     0.0000    18.0000 </r>
       <r>   -11.3764     0.0000    18.0000 </r>
       <r>   -11.2494     0.0000    18.0000 </r>
       <r>   -11.1225     0.0000    18.0000 </r>
       <r>   -10.9956     0.0000    18.0000 </r>
       <r>   -10.8687     0.0000    18.0000 </r>
       <r>   -10.7418     0.0000    18.0000 </r>
       <r>   -10.6148     0.0000    18.0000 </r>
       <r>   -10.4879     0.0000    18.0000 </r>
       <r>   -10.3610     0.0000    18.0000 </r>
       <r>   -10.2341     0.0000    18.0000 </r>
       <r>   -10.1072     0.0000    18.0000 </r>
       <r>    -9.9803     0.0000    18.0000 </r>
       <r>    -9.8533     0.0000    18.0000 </r>
       <r>    -9.7264     0.0000    18.0000 </r>
       <r>    -9.5995     0.0000    18.0000 </r>
       <r>    -9.4726     0.0000    18.0000 </r>
       <r>    -9.3457     0.0000    18.0000 </r>
       <r>    -9.2187     0.0000    18.0000 </r>
       <r>    -9.0918     0.0000    18.0000 </r>
       <r>    -8.9649     0.0177    18.0022 </r>
       <r>    -8.8380    11.0638    19.4064 </r>
       <r>    -8.7111     4.6764    20.0000 </r>
       <r>    -8.5842     0.0003    20.0000 </r>
       <r>    -8.4572     0.0000    20.0000 </r>
       <r>    -8.3303     0.0000    20.0000 </r>
       <r>    -8.2034     0.0000    20.0000 </r>
       <r>    -8.0765     0.0017    20.0002 </r>
       <r>    -7.9496     7.1863    20.9123 </r>
       <r>    -7.8226     8.5662    21.9995 </r>
       <r>    -7.6957     0.0040    22.0000 </r>
       <r>    -7.5688     0.0000    22.0000 </r>
       <r>    -7.4419     0.0000    22.0000 </r>
       <r>    -7.3150     0.0000    22.0000 </r>
       <r>    -7.1881     0.0000    22.0000 </r>
       <r>    -7.0611     0.0000    22.0000 </r>
       <r>    -6.9342     0.0000    22.0000 </r>
       <r>    -6.8073     0.0173    22.0022 </r>
       <r>    -6.6804    11.0265    23.4017 </r>
       <r>    -6.5535     4.7141    24.0000 </r>
       <r>    -6.4265     0.0003    24.0000 </r>
       <r>    -6.2996     0.0000    24.0000 </r>
       <r>    -6.1727     0.0000    24.0000 </r>
       <r>    -6.0458     0.0000    24.0000 </r>
       <r>    -5.9189     0.0000    24.0000 </r>
       <r>    -5.7920     0.0000    24.0000 </r>
       <r>    -5.6650     0.0000    24.0000 </r>
       <r>    -5.5381     0.0000    24.0000 </r>
       <r>    -5.4112     0.0000    24.0000 </r>
       <r>    -5.2843     0.0000    24.0000 </r>
       <r>    -5.1574     0.4046    24.0514 </r>
       <r>    -5.0304    14.5598    25.8993 </r>
       <r>    -4.9035     0.7937    26.0000 </r>
       <r>    -4.7766     0.0000    26.0000 </r>
       <r>    -4.6497     0.0000    26.0000 </r>
       <r>    -4.5228     0.0000    26.0000 </r>
       <r>    -4.3959     0.0000    26.0000 </r>
       <r>    -4.2689     0.0000    26.0000 </r>
       <r>    -4.1420     0.0000    26.0000 </r>
       <r>    -4.0151     0.0000    26.0000 </r>
       <r>    -3.8882     0.0000    26.0000 </r>
       <r>    -3.7613     0.0000    26.0000 </r>
       <r>    -3.6343     0.0000    26.0000 </r>
       <r>    -3.5074     0.0000    26.0000 </r>
       <r>    -3.3805     0.0000    26.0000 </r>
       <r>    -3.2536     0.0000    26.0000 </r>
       <r>    -3.1267     0.0000    26.0000 </r>
       <r>    -2.9998     0.0000    26.0000 </r>
       <r>    -2.8728     0.0000    26.0000 </r>
       <r>    -2.7459     0.0038    26.0005 </r>
       <r>    -2.6190     8.4829    27.0771 </r>
       <r>    -2.4921     7.2698    27.9998 </r>
       <r>    -2.3652     0.0018    28.0000 </r>
       <r>    -2.2382     0.0000    28.0000 </r>
       <r>    -2.1113     0.0000    28.0000 </r>
       <r>    -1.9844     0.0000    28.0000 </r>
       <r>    -1.8575     0.0000    28.0000 </r>
       <r>    -1.7306     0.0000    28.0000 </r>
       <r>    -1.6037     0.0000    28.0000 </r>
       <r>    -1.4767     0.0000    28.0000 </r>
       <r>    -1.3498     0.0000    28.0000 </r>
       <r>    -1.2229     0.0000    28.0000 </r>
       <r>    -1.0960     0.0000    28.0000 </r>
       <r>    -0.9691     0.0000    28.0000 </r>
       <r>    -0.8421     0.0000    28.0000 </r>
       <r>    -0.7152     0.0000    28.0000 </r>
       <r>    -0.5883     0.0000    28.0000 </r>
       <r>    -0.4614     0.0000    28.0000 </r>
       <r>    -0.3345     0.0647    28.0082 </r>
       <r>    -0.2076    12.9838    29.6561 </r>
       <r>    -0.0806     2.7096    30.0000 </r>
       <r>     0.0463     0.0000    30.0000 </r>
       <r>     0.1732     0.0002    30.0000 </r>
       <r>     0.3001     3.9366    30.4996 </r>
       <r>     0.4270    24.9965    33.6721 </r>
       <r>     0.5540    18.1651    35.9776 </r>
       <r>     0.6809     0.1763    36.0000 </r>
       <r>     0.8078     0.0000    36.0000 </r>
       <r>     0.9347     0.0000    36.0000 </r>
       <r>     1.0616     0.0000    36.0000 </r>
       <r>     1.1885     0.0000    36.0000 </r>
       <r>     1.3155     0.0000    36.0000 </r>
       <r>     1.4424     0.0000    36.0000 </r>
       <r>     1.5693     0.0000    36.0000 </r>
       <r>     1.6962     0.0000    36.0000 </r>
       <r>     1.8231     0.0000    36.0000 </r>
       <r>     1.9501     0.0000    36.0000 </r>
       <r>     2.0770     0.0000    36.0000 </r>
       <r>     2.2039     0.0000    36.0000 </r>
      </set>
     </set>
    </array>
   </total>
  </dos>
 </calculation>
 <structure name="finalpos" >
  <crystal>
   <varray name="basis" >
    <v>      14.50000000       0.00000000       0.00000000 </v>
    <v>       0.00000000      14.50000000       0.00000000 </v>
    <v>       0.00000000       0.00000000      14.50000000 </v>
   </varray>
   <i name="volume">   3048.62500000 </i>
   <varray name="rec_basis" >
    <v>       0.06896552       0.00000000       0.00000000 </v>
    <v>       0.00000000       0.06896552       0.00000000 </v>
    <v>       0.00000000       0.00000000       0.06896552 </v>
   </varray>
  </crystal>
  <varray name="positions" >
   <v>       0.00000000       0.00000000       0.00000000 </v>
   <v>       0.08324138       0.00000000       0.00000000 </v>
   <v>       0.00000000       0.00000000       0.12068966 </v>
   <v>       0.08324138       0.00000000       0.12068966 </v>
  </varray>
 </structure>
</modeling>
