 254 254   0   0
  0.3019211E+02  0.1718057E-08  0.1718057E-08  0.3000000E-08  0.5000000E-15
   1.0000000000000000E-004
  CAR 
 NiAl                                    
      5.56886437    -25.72366444  301      1.79556697      1.00000000
    -25.724  0.0000E+00  0.0000E+00
    -25.619  0.0000E+00  0.0000E+00
    -25.515  0.0000E+00  0.0000E+00
    -25.411  0.0000E+00  0.0000E+00
    -25.306  0.0000E+00  0.0000E+00
    -25.202  0.0000E+00  0.0000E+00
    -25.098  0.0000E+00  0.0000E+00
    -24.994  0.0000E+00  0.0000E+00
    -24.889  0.0000E+00  0.0000E+00
    -24.785  0.0000E+00  0.0000E+00
    -24.681  0.0000E+00  0.0000E+00
    -24.576  0.6546E-13  0.6828E-14
    -24.472  0.1261E-04  0.1316E-05
    -24.368  0.5670E+00  0.5914E-01
    -24.263  0.1585E+02  0.1712E+01
    -24.159  0.2758E+01  0.2000E+01
    -24.055  0.5740E-03  0.2000E+01
    -23.950  0.3181E-10  0.2000E+01
    -23.846  0.0000E+00  0.2000E+01
    -23.742  0.0000E+00  0.2000E+01
    -23.637  0.0000E+00  0.2000E+01
    -23.533  0.0000E+00  0.2000E+01
    -23.429  0.0000E+00  0.2000E+01
    -23.325  0.0000E+00  0.2000E+01
    -23.220  0.0000E+00  0.2000E+01
    -23.116  0.0000E+00  0.2000E+01
    -23.012  0.0000E+00  0.2000E+01
    -22.907  0.0000E+00  0.2000E+01
    -22.803  0.0000E+00  0.2000E+01
    -22.699  0.0000E+00  0.2000E+01
    -22.594  0.0000E+00  0.2000E+01
    -22.490  0.0000E+00  0.2000E+01
    -22.386  0.0000E+00  0.2000E+01
    -22.281  0.0000E+00  0.2000E+01
    -22.177  0.0000E+00  0.2000E+01
    -22.073  0.0000E+00  0.2000E+01
    -21.969  0.0000E+00  0.2000E+01
    -21.864  0.0000E+00  0.2000E+01
    -21.760  0.0000E+00  0.2000E+01
    -21.656  0.0000E+00  0.2000E+01
    -21.551  0.0000E+00  0.2000E+01
    -21.447  0.0000E+00  0.2000E+01
    -21.343  0.0000E+00  0.2000E+01
    -21.238  0.0000E+00  0.2000E+01
    -21.134  0.0000E+00  0.2000E+01
    -21.030  0.0000E+00  0.2000E+01
    -20.925  0.0000E+00  0.2000E+01
    -20.821  0.0000E+00  0.2000E+01
    -20.717  0.0000E+00  0.2000E+01
    -20.613  0.0000E+00  0.2000E+01
    -20.508  0.0000E+00  0.2000E+01
    -20.404  0.0000E+00  0.2000E+01
    -20.300  0.0000E+00  0.2000E+01
    -20.195  0.0000E+00  0.2000E+01
    -20.091  0.0000E+00  0.2000E+01
    -19.987  0.0000E+00  0.2000E+01
    -19.882  0.0000E+00  0.2000E+01
    -19.778  0.0000E+00  0.2000E+01
    -19.674  0.0000E+00  0.2000E+01
    -19.569  0.0000E+00  0.2000E+01
    -19.465  0.0000E+00  0.2000E+01
    -19.361  0.0000E+00  0.2000E+01
    -19.257  0.0000E+00  0.2000E+01
    -19.152  0.0000E+00  0.2000E+01
    -19.048  0.0000E+00  0.2000E+01
    -18.944  0.0000E+00  0.2000E+01
    -18.839  0.0000E+00  0.2000E+01
    -18.735  0.0000E+00  0.2000E+01
    -18.631  0.0000E+00  0.2000E+01
    -18.526  0.0000E+00  0.2000E+01
    -18.422  0.0000E+00  0.2000E+01
    -18.318  0.0000E+00  0.2000E+01
    -18.213  0.0000E+00  0.2000E+01
    -18.109  0.0000E+00  0.2000E+01
    -18.005  0.0000E+00  0.2000E+01
    -17.901  0.0000E+00  0.2000E+01
    -17.796  0.0000E+00  0.2000E+01
    -17.692  0.0000E+00  0.2000E+01
    -17.588  0.0000E+00  0.2000E+01
    -17.483  0.0000E+00  0.2000E+01
    -17.379  0.0000E+00  0.2000E+01
    -17.275  0.0000E+00  0.2000E+01
    -17.170  0.0000E+00  0.2000E+01
    -17.066  0.0000E+00  0.2000E+01
    -16.962  0.0000E+00  0.2000E+01
    -16.857  0.0000E+00  0.2000E+01
    -16.753  0.0000E+00  0.2000E+01
    -16.649  0.0000E+00  0.2000E+01
    -16.545  0.0000E+00  0.2000E+01
    -16.440  0.0000E+00  0.2000E+01
    -16.336  0.0000E+00  0.2000E+01
    -16.232  0.0000E+00  0.2000E+01
    -16.127  0.0000E+00  0.2000E+01
    -16.023  0.0000E+00  0.2000E+01
    -15.919  0.0000E+00  0.2000E+01
    -15.814  0.0000E+00  0.2000E+01
    -15.710  0.0000E+00  0.2000E+01
    -15.606  0.0000E+00  0.2000E+01
    -15.501  0.0000E+00  0.2000E+01
    -15.397  0.0000E+00  0.2000E+01
    -15.293  0.0000E+00  0.2000E+01
    -15.189  0.0000E+00  0.2000E+01
    -15.084  0.0000E+00  0.2000E+01
    -14.980  0.0000E+00  0.2000E+01
    -14.876  0.0000E+00  0.2000E+01
    -14.771  0.0000E+00  0.2000E+01
    -14.667  0.0000E+00  0.2000E+01
    -14.563  0.0000E+00  0.2000E+01
    -14.458  0.0000E+00  0.2000E+01
    -14.354  0.0000E+00  0.2000E+01
    -14.250  0.0000E+00  0.2000E+01
    -14.145  0.0000E+00  0.2000E+01
    -14.041  0.0000E+00  0.2000E+01
    -13.937  0.0000E+00  0.2000E+01
    -13.833  0.0000E+00  0.2000E+01
    -13.728  0.0000E+00  0.2000E+01
    -13.624  0.0000E+00  0.2000E+01
    -13.520  0.0000E+00  0.2000E+01
    -13.415  0.0000E+00  0.2000E+01
    -13.311  0.0000E+00  0.2000E+01
    -13.207  0.1685E-09  0.2000E+01
    -13.102  0.1537E-02  0.2000E+01
    -12.998  0.3927E+01  0.2410E+01
    -12.894  0.1492E+02  0.3966E+01
    -12.789  0.3212E+00  0.4000E+01
    -12.685  0.3690E-05  0.4000E+01
    -12.581  0.8515E-14  0.4000E+01
    -12.476  0.0000E+00  0.4000E+01
    -12.372  0.0000E+00  0.4000E+01
    -12.268  0.0000E+00  0.4000E+01
    -12.164  0.0000E+00  0.4000E+01
    -12.059  0.0000E+00  0.4000E+01
    -11.955  0.0000E+00  0.4000E+01
    -11.851  0.0000E+00  0.4000E+01
    -11.746  0.0000E+00  0.4000E+01
    -11.642  0.0000E+00  0.4000E+01
    -11.538  0.0000E+00  0.4000E+01
    -11.433  0.0000E+00  0.4000E+01
    -11.329  0.0000E+00  0.4000E+01
    -11.225  0.0000E+00  0.4000E+01
    -11.120  0.0000E+00  0.4000E+01
    -11.016  0.0000E+00  0.4000E+01
    -10.912  0.0000E+00  0.4000E+01
    -10.808  0.0000E+00  0.4000E+01
    -10.703  0.0000E+00  0.4000E+01
    -10.599  0.0000E+00  0.4000E+01
    -10.495  0.0000E+00  0.4000E+01
    -10.390  0.0000E+00  0.4000E+01
    -10.286  0.0000E+00  0.4000E+01
    -10.182  0.0000E+00  0.4000E+01
    -10.077  0.0000E+00  0.4000E+01
     -9.973  0.0000E+00  0.4000E+01
     -9.869  0.0000E+00  0.4000E+01
     -9.764  0.0000E+00  0.4000E+01
     -9.660  0.0000E+00  0.4000E+01
     -9.556  0.0000E+00  0.4000E+01
     -9.452  0.0000E+00  0.4000E+01
     -9.347  0.1712E-08  0.4000E+01
     -9.243  0.3153E-02  0.4000E+01
     -9.139  0.1898E+01  0.4198E+01
     -9.034  0.3484E+01  0.4562E+01
     -8.930  0.2302E+02  0.6963E+01
     -8.826  0.5558E+01  0.7543E+01
     -8.721  0.4279E+01  0.7989E+01
     -8.617  0.3086E+02  0.1121E+02
     -8.513  0.2901E+02  0.1423E+02
     -8.408  0.2478E+02  0.1682E+02
     -8.304  0.8795E+01  0.1773E+02
     -8.200  0.2203E+02  0.2003E+02
     -8.096  0.2312E+02  0.2244E+02
     -7.991  0.3215E+02  0.2580E+02
     -7.887  0.6287E+02  0.3235E+02
     -7.783  0.1444E+01  0.3251E+02
     -7.678  0.1417E+02  0.3398E+02
     -7.574  0.9367E+02  0.4375E+02
     -7.470  0.2020E+02  0.4586E+02
     -7.365  0.1940E+02  0.4788E+02
     -7.261  0.3013E+02  0.5103E+02
     -7.157  0.2664E+02  0.5381E+02
     -7.052  0.3824E+02  0.5779E+02
     -6.948  0.8348E+02  0.6650E+02
     -6.844  0.4345E+02  0.7103E+02
     -6.740  0.4142E+02  0.7535E+02
     -6.635  0.5716E+02  0.8132E+02
     -6.531  0.6214E+02  0.8780E+02
     -6.427  0.3638E+02  0.9159E+02
     -6.322  0.3918E+01  0.9200E+02
     -6.218  0.6534E+01  0.9268E+02
     -6.114  0.8699E+02  0.1018E+03
     -6.009  0.7873E+02  0.1100E+03
     -5.905  0.8892E+02  0.1192E+03
     -5.801  0.3235E+02  0.1226E+03
     -5.696  0.4533E+02  0.1273E+03
     -5.592  0.1184E+03  0.1397E+03
     -5.488  0.4364E+02  0.1442E+03
     -5.384  0.3208E+02  0.1476E+03
     -5.279  0.6500E+02  0.1544E+03
     -5.175  0.3525E+02  0.1581E+03
     -5.071  0.8238E+02  0.1666E+03
     -4.966  0.8273E+02  0.1753E+03
     -4.862  0.2657E+02  0.1780E+03
     -4.758  0.3631E+02  0.1818E+03
     -4.653  0.1129E+03  0.1936E+03
     -4.549  0.6634E+02  0.2005E+03
     -4.445  0.5481E+02  0.2062E+03
     -4.340  0.3797E+02  0.2102E+03
     -4.236  0.6615E+02  0.2171E+03
     -4.132  0.1253E+03  0.2302E+03
     -4.028  0.9531E+02  0.2401E+03
     -3.923  0.3981E+02  0.2443E+03
     -3.819  0.6742E+02  0.2513E+03
     -3.715  0.7085E+02  0.2587E+03
     -3.610  0.8533E+02  0.2676E+03
     -3.506  0.5797E+02  0.2736E+03
     -3.402  0.3405E+02  0.2772E+03
     -3.297  0.1092E+02  0.2783E+03
     -3.193  0.8273E+02  0.2870E+03
     -3.089  0.8978E+02  0.2963E+03
     -2.984  0.1021E+03  0.3070E+03
     -2.880  0.9778E+02  0.3172E+03
     -2.776  0.1546E+03  0.3333E+03
     -2.672  0.1463E+03  0.3486E+03
     -2.567  0.7952E+01  0.3494E+03
     -2.463  0.1393E+02  0.3508E+03
     -2.359  0.6355E+02  0.3575E+03
     -2.254  0.1291E+03  0.3709E+03
     -2.150  0.7210E+02  0.3785E+03
     -2.046  0.9439E+02  0.3883E+03
     -1.941  0.4036E+02  0.3925E+03
     -1.837  0.1022E+03  0.4032E+03
     -1.733  0.1531E+03  0.4192E+03
     -1.628  0.3719E+02  0.4230E+03
     -1.524  0.7119E+02  0.4305E+03
     -1.420  0.6353E+02  0.4371E+03
     -1.315  0.1627E+03  0.4541E+03
     -1.211  0.1022E+03  0.4647E+03
     -1.107  0.1110E+03  0.4763E+03
     -1.003  0.7052E+02  0.4836E+03
     -0.898  0.7760E+02  0.4917E+03
     -0.794  0.1312E+03  0.5054E+03
     -0.690  0.7765E+02  0.5135E+03
     -0.585  0.3407E+02  0.5171E+03
     -0.481  0.9806E+02  0.5273E+03
     -0.377  0.2003E+03  0.5482E+03
     -0.272  0.8953E+02  0.5575E+03
     -0.168  0.1197E+03  0.5700E+03
     -0.064  0.4250E+02  0.5745E+03
      0.041  0.5125E+02  0.5798E+03
      0.145  0.1038E+03  0.5906E+03
      0.249  0.1000E+03  0.6011E+03
      0.353  0.7474E+02  0.6089E+03
      0.458  0.1040E+03  0.6197E+03
      0.562  0.1183E+03  0.6320E+03
      0.666  0.6650E+02  0.6390E+03
      0.771  0.5211E+02  0.6444E+03
      0.875  0.6739E+02  0.6514E+03
      0.979  0.1901E+03  0.6713E+03
      1.084  0.1793E+03  0.6900E+03
      1.188  0.1075E+03  0.7012E+03
      1.292  0.7383E+02  0.7089E+03
      1.397  0.7587E+02  0.7168E+03
      1.501  0.9407E+02  0.7266E+03
      1.605  0.1533E+03  0.7426E+03
      1.709  0.1696E+03  0.7603E+03
      1.814  0.8379E+02  0.7690E+03
      1.918  0.5071E+02  0.7743E+03
      2.022  0.1614E+03  0.7912E+03
      2.127  0.9673E+02  0.8013E+03
      2.231  0.7888E+02  0.8095E+03
      2.335  0.6029E+02  0.8158E+03
      2.440  0.9885E+02  0.8261E+03
      2.544  0.8737E+02  0.8352E+03
      2.648  0.1450E+03  0.8503E+03
      2.753  0.7372E+02  0.8580E+03
      2.857  0.8288E+02  0.8667E+03
      2.961  0.2760E+03  0.8954E+03
      3.065  0.1825E+03  0.9145E+03
      3.170  0.5805E+02  0.9205E+03
      3.274  0.8616E+02  0.9295E+03
      3.378  0.1300E+03  0.9431E+03
      3.483  0.1464E+03  0.9584E+03
      3.587  0.8712E+02  0.9674E+03
      3.691  0.1040E+03  0.9783E+03
      3.796  0.8403E+02  0.9871E+03
      3.900  0.8825E+02  0.9963E+03
      4.004  0.1680E+03  0.1014E+04
      4.109  0.8597E+02  0.1023E+04
      4.213  0.1179E+02  0.1024E+04
      4.317  0.1760E+00  0.1024E+04
      4.421  0.3395E-05  0.1024E+04
      4.526  0.1756E-13  0.1024E+04
      4.630  0.0000E+00  0.1024E+04
      4.734  0.0000E+00  0.1024E+04
      4.839  0.0000E+00  0.1024E+04
      4.943  0.0000E+00  0.1024E+04
      5.047  0.0000E+00  0.1024E+04
      5.152  0.0000E+00  0.1024E+04
      5.256  0.0000E+00  0.1024E+04
      5.360  0.0000E+00  0.1024E+04
      5.465  0.0000E+00  0.1024E+04
      5.569  0.0000E+00  0.1024E+04
