       N       E                     dE             d eps       ncg     rms          rms(c)
DAV:   1     0.240944405562E+04    0.24094E+04   -0.20457E+05  3088   0.854E+02
DAV:   2    -0.696244022138E+03   -0.31057E+04   -0.29364E+04  4200   0.202E+02
DAV:   3    -0.940179478952E+03   -0.24394E+03   -0.23441E+03  4592   0.447E+01
DAV:   4    -0.953399487574E+03   -0.13220E+02   -0.12008E+02  4560   0.959E+00
DAV:   5    -0.954876225429E+03   -0.14767E+01   -0.12974E+01  5048   0.244E+00    0.567E+01
DAV:   6    -0.967514888740E+03   -0.12639E+02   -0.19013E+02  4448   0.163E+01    0.380E+01
DAV:   7    -0.968991116259E+03   -0.14762E+01   -0.31470E+02  4304   0.255E+01    0.320E+01
DAV:   8    -0.942861632334E+03    0.26129E+02   -0.17488E+02  4120   0.184E+01    0.180E+01
DAV:   9    -0.972556590082E+03   -0.29695E+02   -0.38384E+01  4088   0.179E+01    0.217E+01
DAV:  10    -0.929118514091E+03    0.43438E+02   -0.49260E+01  4448   0.132E+01    0.104E+01
DAV:  11    -0.927338184868E+03    0.17803E+01   -0.18106E+01  4064   0.524E+00    0.410E+00
DAV:  12    -0.927089549197E+03    0.24864E+00   -0.33398E+00  3800   0.211E+00    0.247E+00
DAV:  13    -0.927142032985E+03   -0.52484E-01   -0.39572E-01  3904   0.111E+00    0.254E+00
DAV:  14    -0.927079347757E+03    0.62685E-01   -0.10849E-01  3904   0.401E-01    0.219E+00
DAV:  15    -0.926835129026E+03    0.24422E+00   -0.35687E-01  3872   0.605E-01    0.587E-01
DAV:  16    -0.926809354024E+03    0.25775E-01   -0.28851E-01  3976   0.464E-01    0.758E-01
DAV:  17    -0.926805029366E+03    0.43247E-02   -0.31183E-02  3784   0.250E-01    0.318E-01
DAV:  18    -0.926803030988E+03    0.19984E-02   -0.17373E-02  3760   0.155E-01    0.147E-01
DAV:  19    -0.926804023329E+03   -0.99234E-03   -0.85306E-03  3600   0.967E-02    0.103E-01
DAV:  20    -0.926808464356E+03   -0.44410E-02   -0.26243E-03  3592   0.581E-02    0.698E-02
DAV:  21    -0.926812476741E+03   -0.40124E-02   -0.11636E-03  3776   0.439E-02    0.943E-02
DAV:  22    -0.926814867058E+03   -0.23903E-02   -0.12930E-03  3424   0.459E-02    0.750E-02
DAV:  23    -0.926815973216E+03   -0.11062E-02   -0.39004E-04  3520   0.330E-02    0.722E-02
DAV:  24    -0.926816978607E+03   -0.10054E-02   -0.19669E-04  3320   0.151E-02    0.316E-02
DAV:  25    -0.926817894305E+03   -0.91570E-03   -0.29701E-04  3768   0.174E-02    0.500E-02
DAV:  26    -0.926818446598E+03   -0.55229E-03   -0.47853E-05  3424   0.837E-03    0.363E-02
DAV:  27    -0.926819171866E+03   -0.72527E-03   -0.59576E-05  3144   0.922E-03    0.110E-02
DAV:  28    -0.926819577243E+03   -0.40538E-03   -0.21784E-05  2880   0.516E-03    0.850E-03
DAV:  29    -0.926819885837E+03   -0.30859E-03   -0.17480E-05  2544   0.393E-03    0.666E-03
DAV:  30    -0.926820072616E+03   -0.18678E-03   -0.13275E-05  2640   0.226E-03    0.469E-03
DAV:  31    -0.926820144435E+03   -0.71819E-04   -0.41847E-06  2376   0.160E-03    0.185E-03
DAV:  32    -0.926820160465E+03   -0.16029E-04   -0.91272E-07  2072   0.848E-04    0.206E-03
DAV:  33    -0.926820162795E+03   -0.23305E-05   -0.17539E-07  1768   0.563E-04
   1 F= -.99957953E+03 E0= -.99953843E+03  d E =-.822021E-01
