 254 254   0   0
  0.3019211E+02  0.1718057E-08  0.1718057E-08  0.3000000E-08  0.5000000E-15
   1.0000000000000000E-004
  CAR 
 NiAl                                    
      5.10540949    -17.97231074  301      1.71538468      1.00000000
    -17.972  0.0000E+00  0.0000E+00
    -17.895  0.0000E+00  0.0000E+00
    -17.818  0.0000E+00  0.0000E+00
    -17.742  0.0000E+00  0.0000E+00
    -17.665  0.0000E+00  0.0000E+00
    -17.588  0.0000E+00  0.0000E+00
    -17.511  0.0000E+00  0.0000E+00
    -17.434  0.0000E+00  0.0000E+00
    -17.357  0.0000E+00  0.0000E+00
    -17.280  0.0000E+00  0.0000E+00
    -17.203  0.3139E-13  0.2415E-14
    -17.126  0.1217E-06  0.9360E-08
    -17.049  0.4709E-02  0.3623E-03
    -16.972  0.2133E+01  0.1644E+00
    -16.895  0.1824E+02  0.1568E+01
    -16.818  0.5579E+01  0.1997E+01
    -16.741  0.3984E-01  0.2000E+01
    -16.665  0.3630E-05  0.2000E+01
    -16.588  0.3403E-11  0.2000E+01
    -16.511  0.0000E+00  0.2000E+01
    -16.434  0.0000E+00  0.2000E+01
    -16.357  0.0000E+00  0.2000E+01
    -16.280  0.0000E+00  0.2000E+01
    -16.203  0.0000E+00  0.2000E+01
    -16.126  0.0000E+00  0.2000E+01
    -16.049  0.0000E+00  0.2000E+01
    -15.972  0.0000E+00  0.2000E+01
    -15.895  0.0000E+00  0.2000E+01
    -15.818  0.0000E+00  0.2000E+01
    -15.741  0.0000E+00  0.2000E+01
    -15.665  0.0000E+00  0.2000E+01
    -15.588  0.0000E+00  0.2000E+01
    -15.511  0.0000E+00  0.2000E+01
    -15.434  0.0000E+00  0.2000E+01
    -15.357  0.0000E+00  0.2000E+01
    -15.280  0.0000E+00  0.2000E+01
    -15.203  0.0000E+00  0.2000E+01
    -15.126  0.0000E+00  0.2000E+01
    -15.049  0.0000E+00  0.2000E+01
    -14.972  0.0000E+00  0.2000E+01
    -14.895  0.0000E+00  0.2000E+01
    -14.818  0.0000E+00  0.2000E+01
    -14.741  0.0000E+00  0.2000E+01
    -14.665  0.0000E+00  0.2000E+01
    -14.588  0.0000E+00  0.2000E+01
    -14.511  0.0000E+00  0.2000E+01
    -14.434  0.0000E+00  0.2000E+01
    -14.357  0.0000E+00  0.2000E+01
    -14.280  0.0000E+00  0.2000E+01
    -14.203  0.0000E+00  0.2000E+01
    -14.126  0.0000E+00  0.2000E+01
    -14.049  0.0000E+00  0.2000E+01
    -13.972  0.0000E+00  0.2000E+01
    -13.895  0.0000E+00  0.2000E+01
    -13.818  0.0000E+00  0.2000E+01
    -13.741  0.0000E+00  0.2000E+01
    -13.664  0.0000E+00  0.2000E+01
    -13.588  0.0000E+00  0.2000E+01
    -13.511  0.0000E+00  0.2000E+01
    -13.434  0.0000E+00  0.2000E+01
    -13.357  0.0000E+00  0.2000E+01
    -13.280  0.0000E+00  0.2000E+01
    -13.203  0.0000E+00  0.2000E+01
    -13.126  0.2073E-10  0.2000E+01
    -13.049  0.1310E-04  0.2000E+01
    -12.972  0.8630E-01  0.2007E+01
    -12.895  0.7585E+01  0.2590E+01
    -12.818  0.1701E+02  0.3898E+01
    -12.741  0.1319E+01  0.4000E+01
    -12.664  0.1785E-02  0.4000E+01
    -12.588  0.2749E-07  0.4000E+01
    -12.511  0.5773E-14  0.4000E+01
    -12.434  0.0000E+00  0.4000E+01
    -12.357  0.0000E+00  0.4000E+01
    -12.280  0.0000E+00  0.4000E+01
    -12.203  0.0000E+00  0.4000E+01
    -12.126  0.0000E+00  0.4000E+01
    -12.049  0.0000E+00  0.4000E+01
    -11.972  0.0000E+00  0.4000E+01
    -11.895  0.0000E+00  0.4000E+01
    -11.818  0.0000E+00  0.4000E+01
    -11.741  0.0000E+00  0.4000E+01
    -11.664  0.0000E+00  0.4000E+01
    -11.587  0.0000E+00  0.4000E+01
    -11.511  0.0000E+00  0.4000E+01
    -11.434  0.0000E+00  0.4000E+01
    -11.357  0.0000E+00  0.4000E+01
    -11.280  0.0000E+00  0.4000E+01
    -11.203  0.0000E+00  0.4000E+01
    -11.126  0.0000E+00  0.4000E+01
    -11.049  0.0000E+00  0.4000E+01
    -10.972  0.0000E+00  0.4000E+01
    -10.895  0.0000E+00  0.4000E+01
    -10.818  0.0000E+00  0.4000E+01
    -10.741  0.0000E+00  0.4000E+01
    -10.664  0.0000E+00  0.4000E+01
    -10.587  0.0000E+00  0.4000E+01
    -10.511  0.0000E+00  0.4000E+01
    -10.434  0.0000E+00  0.4000E+01
    -10.357  0.0000E+00  0.4000E+01
    -10.280  0.0000E+00  0.4000E+01
    -10.203  0.0000E+00  0.4000E+01
    -10.126  0.0000E+00  0.4000E+01
    -10.049  0.0000E+00  0.4000E+01
     -9.972  0.0000E+00  0.4000E+01
     -9.895  0.0000E+00  0.4000E+01
     -9.818  0.0000E+00  0.4000E+01
     -9.741  0.0000E+00  0.4000E+01
     -9.664  0.0000E+00  0.4000E+01
     -9.587  0.0000E+00  0.4000E+01
     -9.510  0.0000E+00  0.4000E+01
     -9.434  0.1228E-08  0.4000E+01
     -9.357  0.1420E-03  0.4000E+01
     -9.280  0.1817E+00  0.4014E+01
     -9.203  0.3746E+01  0.4302E+01
     -9.126  0.2965E+01  0.4530E+01
     -9.049  0.1749E+02  0.5875E+01
     -8.972  0.2038E+02  0.7443E+01
     -8.895  0.1652E+01  0.7570E+01
     -8.818  0.4760E+01  0.7936E+01
     -8.741  0.1173E+02  0.8838E+01
     -8.664  0.5466E+02  0.1304E+02
     -8.587  0.1702E+02  0.1435E+02
     -8.510  0.2820E+02  0.1652E+02
     -8.434  0.6826E+01  0.1705E+02
     -8.357  0.1945E+02  0.1854E+02
     -8.280  0.1876E+02  0.1999E+02
     -8.203  0.1810E+02  0.2138E+02
     -8.126  0.2754E+02  0.2350E+02
     -8.049  0.5157E+02  0.2746E+02
     -7.972  0.6275E+02  0.3229E+02
     -7.895  0.2720E+01  0.3250E+02
     -7.818  0.1272E+00  0.3251E+02
     -7.741  0.2260E+02  0.3425E+02
     -7.664  0.1105E+03  0.4275E+02
     -7.587  0.2585E+02  0.4474E+02
     -7.510  0.2745E+02  0.4685E+02
     -7.433  0.9769E+01  0.4760E+02
     -7.357  0.2649E+02  0.4964E+02
     -7.280  0.2038E+02  0.5121E+02
     -7.203  0.4787E+02  0.5489E+02
     -7.126  0.2982E+02  0.5718E+02
     -7.049  0.7796E+02  0.6318E+02
     -6.972  0.7362E+02  0.6884E+02
     -6.895  0.2531E+02  0.7079E+02
     -6.818  0.5088E+02  0.7470E+02
     -6.741  0.3500E+02  0.7740E+02
     -6.664  0.1103E+03  0.8588E+02
     -6.587  0.2465E+02  0.8778E+02
     -6.510  0.2646E+02  0.8981E+02
     -6.433  0.2474E+01  0.9000E+02
     -6.357  0.2011E+01  0.9016E+02
     -6.280  0.1214E+02  0.9109E+02
     -6.203  0.1101E+03  0.9956E+02
     -6.126  0.8113E+02  0.1058E+03
     -6.049  0.1026E+03  0.1137E+03
     -5.972  0.4951E+02  0.1175E+03
     -5.895  0.2374E+02  0.1193E+03
     -5.818  0.4787E+02  0.1230E+03
     -5.741  0.7829E+02  0.1290E+03
     -5.664  0.1079E+03  0.1373E+03
     -5.587  0.2686E+02  0.1394E+03
     -5.510  0.2560E+02  0.1414E+03
     -5.433  0.2417E+02  0.1432E+03
     -5.356  0.8319E+02  0.1496E+03
     -5.280  0.2458E+02  0.1515E+03
     -5.203  0.8743E+02  0.1582E+03
     -5.126  0.6935E+02  0.1636E+03
     -5.049  0.8775E+02  0.1703E+03
     -4.972  0.2163E+02  0.1720E+03
     -4.895  0.1955E+02  0.1735E+03
     -4.818  0.6328E+02  0.1784E+03
     -4.741  0.1300E+03  0.1884E+03
     -4.664  0.6453E+02  0.1933E+03
     -4.587  0.5878E+02  0.1978E+03
     -4.510  0.4833E+02  0.2016E+03
     -4.433  0.2909E+02  0.2038E+03
     -4.356  0.7679E+02  0.2097E+03
     -4.280  0.8197E+02  0.2160E+03
     -4.203  0.1430E+03  0.2270E+03
     -4.126  0.7898E+02  0.2331E+03
     -4.049  0.6152E+02  0.2378E+03
     -3.972  0.2585E+02  0.2398E+03
     -3.895  0.9294E+02  0.2470E+03
     -3.818  0.6104E+02  0.2517E+03
     -3.741  0.1028E+03  0.2596E+03
     -3.664  0.4404E+02  0.2630E+03
     -3.587  0.7191E+02  0.2685E+03
     -3.510  0.3588E+02  0.2712E+03
     -3.433  0.4269E+01  0.2716E+03
     -3.356  0.3326E+02  0.2741E+03
     -3.279  0.9401E+02  0.2814E+03
     -3.203  0.7915E+02  0.2875E+03
     -3.126  0.1231E+03  0.2969E+03
     -3.049  0.7634E+02  0.3028E+03
     -2.972  0.1023E+03  0.3107E+03
     -2.895  0.1612E+03  0.3231E+03
     -2.818  0.1896E+03  0.3376E+03
     -2.741  0.7499E+02  0.3434E+03
     -2.664  0.1118E+01  0.3435E+03
     -2.587  0.3839E+01  0.3438E+03
     -2.510  0.4892E+02  0.3476E+03
     -2.433  0.8989E+02  0.3545E+03
     -2.356  0.1437E+03  0.3655E+03
     -2.279  0.8532E+02  0.3721E+03
     -2.203  0.8062E+02  0.3783E+03
     -2.126  0.8089E+02  0.3845E+03
     -2.049  0.3819E+02  0.3875E+03
     -1.972  0.9255E+02  0.3946E+03
     -1.895  0.1146E+03  0.4034E+03
     -1.818  0.1633E+03  0.4160E+03
     -1.741  0.3151E+02  0.4184E+03
     -1.664  0.5859E+02  0.4229E+03
     -1.587  0.8382E+02  0.4293E+03
     -1.510  0.5365E+02  0.4335E+03
     -1.433  0.1410E+03  0.4443E+03
     -1.356  0.1609E+03  0.4567E+03
     -1.279  0.9128E+02  0.4637E+03
     -1.203  0.1062E+03  0.4719E+03
     -1.126  0.7195E+02  0.4774E+03
     -1.049  0.8763E+02  0.4842E+03
     -0.972  0.9785E+02  0.4917E+03
     -0.895  0.1295E+03  0.5016E+03
     -0.818  0.9447E+02  0.5089E+03
     -0.741  0.7401E+02  0.5146E+03
     -0.664  0.3006E+02  0.5169E+03
     -0.587  0.7721E+02  0.5229E+03
     -0.510  0.1921E+03  0.5376E+03
     -0.433  0.1687E+03  0.5506E+03
     -0.356  0.7775E+02  0.5566E+03
     -0.279  0.1549E+03  0.5685E+03
     -0.202  0.4750E+02  0.5722E+03
     -0.126  0.3467E+02  0.5748E+03
     -0.049  0.4901E+02  0.5786E+03
      0.028  0.1251E+03  0.5882E+03
      0.105  0.7287E+02  0.5938E+03
      0.182  0.1092E+03  0.6022E+03
      0.259  0.6835E+02  0.6075E+03
      0.336  0.7081E+02  0.6129E+03
      0.413  0.1587E+03  0.6251E+03
      0.490  0.9391E+02  0.6324E+03
      0.567  0.6935E+02  0.6377E+03
      0.644  0.4874E+02  0.6415E+03
      0.721  0.4075E+02  0.6446E+03
      0.798  0.6403E+02  0.6495E+03
      0.874  0.1756E+03  0.6630E+03
      0.951  0.2579E+03  0.6829E+03
      1.028  0.1237E+03  0.6924E+03
      1.105  0.9003E+02  0.6993E+03
      1.182  0.7374E+02  0.7050E+03
      1.259  0.6533E+02  0.7100E+03
      1.336  0.9162E+02  0.7170E+03
      1.413  0.9488E+02  0.7243E+03
      1.490  0.1523E+03  0.7361E+03
      1.567  0.1823E+03  0.7501E+03
      1.644  0.1513E+03  0.7617E+03
      1.721  0.8620E+02  0.7684E+03
      1.798  0.4160E+02  0.7716E+03
      1.875  0.1164E+03  0.7805E+03
      1.951  0.1795E+03  0.7943E+03
      2.028  0.8808E+02  0.8011E+03
      2.105  0.6747E+02  0.8063E+03
      2.182  0.7877E+02  0.8123E+03
      2.259  0.4750E+02  0.8160E+03
      2.336  0.1039E+03  0.8240E+03
      2.413  0.1053E+03  0.8321E+03
      2.490  0.9853E+02  0.8397E+03
      2.567  0.1499E+03  0.8512E+03
      2.644  0.7120E+02  0.8567E+03
      2.721  0.6961E+02  0.8620E+03
      2.798  0.1144E+03  0.8708E+03
      2.875  0.3190E+03  0.8954E+03
      2.951  0.2205E+03  0.9123E+03
      3.028  0.8402E+02  0.9188E+03
      3.105  0.4262E+02  0.9221E+03
      3.182  0.9417E+02  0.9293E+03
      3.259  0.1240E+03  0.9389E+03
      3.336  0.1526E+03  0.9506E+03
      3.413  0.1380E+03  0.9612E+03
      3.490  0.7729E+02  0.9672E+03
      3.567  0.8140E+02  0.9734E+03
      3.644  0.1081E+03  0.9817E+03
      3.721  0.7932E+02  0.9878E+03
      3.798  0.7285E+02  0.9934E+03
      3.875  0.1620E+03  0.1006E+04
      3.952  0.1600E+03  0.1018E+04
      4.028  0.6281E+02  0.1023E+04
      4.105  0.1138E+02  0.1024E+04
      4.182  0.9955E+00  0.1024E+04
      4.259  0.2052E-02  0.1024E+04
      4.336  0.4981E-07  0.1024E+04
      4.413  0.1299E-13  0.1024E+04
      4.490  0.0000E+00  0.1024E+04
      4.567  0.0000E+00  0.1024E+04
      4.644  0.0000E+00  0.1024E+04
      4.721  0.0000E+00  0.1024E+04
      4.798  0.0000E+00  0.1024E+04
      4.875  0.0000E+00  0.1024E+04
      4.952  0.0000E+00  0.1024E+04
      5.028  0.0000E+00  0.1024E+04
      5.105  0.0000E+00  0.1024E+04
