 254 254   0   0
  0.2268316E+02  0.1514622E-08  0.1514622E-08  0.2900000E-08  0.5000000E-15
   1.0000000000000000E-004
  CAR 
 NiAl                                    
      6.15929577    -26.83736861  301     -0.56871573      1.00000000
    -26.837  0.0000E+00  0.0000E+00
    -26.727  0.0000E+00  0.0000E+00
    -26.617  0.0000E+00  0.0000E+00
    -26.507  0.0000E+00  0.0000E+00
    -26.397  0.0000E+00  0.0000E+00
    -26.287  0.0000E+00  0.0000E+00
    -26.177  0.0000E+00  0.0000E+00
    -26.067  0.0000E+00  0.0000E+00
    -25.957  0.0000E+00  0.0000E+00
    -25.847  0.0000E+00  0.0000E+00
    -25.737  0.0000E+00  0.0000E+00
    -25.627  0.2019E-14  0.2220E-15
    -25.518  0.3138E-05  0.3451E-06
    -25.408  0.4275E+00  0.4703E-01
    -25.298  0.1539E+02  0.1739E+01
    -25.188  0.2370E+01  0.2000E+01
    -25.078  0.2071E-03  0.2000E+01
    -24.968  0.1847E-11  0.2000E+01
    -24.858  0.0000E+00  0.2000E+01
    -24.748  0.0000E+00  0.2000E+01
    -24.638  0.0000E+00  0.2000E+01
    -24.528  0.0000E+00  0.2000E+01
    -24.418  0.0000E+00  0.2000E+01
    -24.308  0.0000E+00  0.2000E+01
    -24.198  0.0000E+00  0.2000E+01
    -24.088  0.0000E+00  0.2000E+01
    -23.978  0.0000E+00  0.2000E+01
    -23.868  0.0000E+00  0.2000E+01
    -23.758  0.0000E+00  0.2000E+01
    -23.648  0.0000E+00  0.2000E+01
    -23.538  0.0000E+00  0.2000E+01
    -23.428  0.0000E+00  0.2000E+01
    -23.318  0.0000E+00  0.2000E+01
    -23.208  0.0000E+00  0.2000E+01
    -23.098  0.0000E+00  0.2000E+01
    -22.988  0.0000E+00  0.2000E+01
    -22.878  0.0000E+00  0.2000E+01
    -22.768  0.0000E+00  0.2000E+01
    -22.658  0.0000E+00  0.2000E+01
    -22.548  0.0000E+00  0.2000E+01
    -22.438  0.0000E+00  0.2000E+01
    -22.328  0.0000E+00  0.2000E+01
    -22.218  0.0000E+00  0.2000E+01
    -22.108  0.0000E+00  0.2000E+01
    -21.998  0.0000E+00  0.2000E+01
    -21.888  0.0000E+00  0.2000E+01
    -21.778  0.0000E+00  0.2000E+01
    -21.668  0.0000E+00  0.2000E+01
    -21.558  0.0000E+00  0.2000E+01
    -21.448  0.0000E+00  0.2000E+01
    -21.338  0.0000E+00  0.2000E+01
    -21.228  0.0000E+00  0.2000E+01
    -21.118  0.0000E+00  0.2000E+01
    -21.008  0.0000E+00  0.2000E+01
    -20.898  0.0000E+00  0.2000E+01
    -20.788  0.0000E+00  0.2000E+01
    -20.678  0.0000E+00  0.2000E+01
    -20.568  0.0000E+00  0.2000E+01
    -20.458  0.0000E+00  0.2000E+01
    -20.348  0.0000E+00  0.2000E+01
    -20.238  0.0000E+00  0.2000E+01
    -20.128  0.0000E+00  0.2000E+01
    -20.018  0.0000E+00  0.2000E+01
    -19.908  0.0000E+00  0.2000E+01
    -19.798  0.0000E+00  0.2000E+01
    -19.688  0.0000E+00  0.2000E+01
    -19.578  0.0000E+00  0.2000E+01
    -19.468  0.0000E+00  0.2000E+01
    -19.358  0.0000E+00  0.2000E+01
    -19.248  0.0000E+00  0.2000E+01
    -19.138  0.0000E+00  0.2000E+01
    -19.028  0.0000E+00  0.2000E+01
    -18.918  0.0000E+00  0.2000E+01
    -18.808  0.0000E+00  0.2000E+01
    -18.698  0.0000E+00  0.2000E+01
    -18.588  0.0000E+00  0.2000E+01
    -18.478  0.0000E+00  0.2000E+01
    -18.368  0.0000E+00  0.2000E+01
    -18.258  0.0000E+00  0.2000E+01
    -18.148  0.0000E+00  0.2000E+01
    -18.038  0.0000E+00  0.2000E+01
    -17.928  0.0000E+00  0.2000E+01
    -17.818  0.0000E+00  0.2000E+01
    -17.708  0.0000E+00  0.2000E+01
    -17.598  0.0000E+00  0.2000E+01
    -17.488  0.0000E+00  0.2000E+01
    -17.378  0.0000E+00  0.2000E+01
    -17.268  0.0000E+00  0.2000E+01
    -17.158  0.0000E+00  0.2000E+01
    -17.048  0.0000E+00  0.2000E+01
    -16.938  0.0000E+00  0.2000E+01
    -16.828  0.0000E+00  0.2000E+01
    -16.718  0.0000E+00  0.2000E+01
    -16.608  0.0000E+00  0.2000E+01
    -16.498  0.0000E+00  0.2000E+01
    -16.388  0.0000E+00  0.2000E+01
    -16.278  0.0000E+00  0.2000E+01
    -16.168  0.0000E+00  0.2000E+01
    -16.058  0.0000E+00  0.2000E+01
    -15.948  0.0000E+00  0.2000E+01
    -15.838  0.0000E+00  0.2000E+01
    -15.728  0.0000E+00  0.2000E+01
    -15.619  0.0000E+00  0.2000E+01
    -15.509  0.0000E+00  0.2000E+01
    -15.399  0.0000E+00  0.2000E+01
    -15.289  0.0000E+00  0.2000E+01
    -15.179  0.0000E+00  0.2000E+01
    -15.069  0.0000E+00  0.2000E+01
    -14.959  0.0000E+00  0.2000E+01
    -14.849  0.5192E-06  0.2000E+01
    -14.739  0.1866E+00  0.2021E+01
    -14.629  0.1411E+02  0.3573E+01
    -14.519  0.3882E+01  0.4000E+01
    -14.409  0.8559E-03  0.4000E+01
    -14.299  0.2073E-10  0.4000E+01
    -14.189  0.0000E+00  0.4000E+01
    -14.079  0.0000E+00  0.4000E+01
    -13.969  0.0000E+00  0.4000E+01
    -13.859  0.0000E+00  0.4000E+01
    -13.749  0.0000E+00  0.4000E+01
    -13.639  0.0000E+00  0.4000E+01
    -13.529  0.0000E+00  0.4000E+01
    -13.419  0.0000E+00  0.4000E+01
    -13.309  0.0000E+00  0.4000E+01
    -13.199  0.0000E+00  0.4000E+01
    -13.089  0.0000E+00  0.4000E+01
    -12.979  0.0000E+00  0.4000E+01
    -12.869  0.0000E+00  0.4000E+01
    -12.759  0.0000E+00  0.4000E+01
    -12.649  0.0000E+00  0.4000E+01
    -12.539  0.0000E+00  0.4000E+01
    -12.429  0.0000E+00  0.4000E+01
    -12.319  0.0000E+00  0.4000E+01
    -12.209  0.0000E+00  0.4000E+01
    -12.099  0.0000E+00  0.4000E+01
    -11.989  0.0000E+00  0.4000E+01
    -11.879  0.0000E+00  0.4000E+01
    -11.769  0.0000E+00  0.4000E+01
    -11.659  0.0000E+00  0.4000E+01
    -11.549  0.0000E+00  0.4000E+01
    -11.439  0.0000E+00  0.4000E+01
    -11.329  0.0000E+00  0.4000E+01
    -11.219  0.0000E+00  0.4000E+01
    -11.109  0.0000E+00  0.4000E+01
    -10.999  0.0000E+00  0.4000E+01
    -10.889  0.0000E+00  0.4000E+01
    -10.779  0.0000E+00  0.4000E+01
    -10.669  0.0000E+00  0.4000E+01
    -10.559  0.0000E+00  0.4000E+01
    -10.449  0.0000E+00  0.4000E+01
    -10.339  0.0000E+00  0.4000E+01
    -10.229  0.0000E+00  0.4000E+01
    -10.119  0.0000E+00  0.4000E+01
    -10.009  0.0000E+00  0.4000E+01
     -9.899  0.0000E+00  0.4000E+01
     -9.789  0.0000E+00  0.4000E+01
     -9.679  0.0000E+00  0.4000E+01
     -9.569  0.0000E+00  0.4000E+01
     -9.459  0.0000E+00  0.4000E+01
     -9.349  0.9352E-09  0.4000E+01
     -9.239  0.3858E-02  0.4000E+01
     -9.129  0.2219E+01  0.4244E+01
     -9.019  0.2326E+01  0.4500E+01
     -8.909  0.9763E+01  0.5574E+01
     -8.799  0.1743E+02  0.7491E+01
     -8.689  0.1062E+00  0.7503E+01
     -8.579  0.3211E+01  0.7856E+01
     -8.469  0.7390E+01  0.8669E+01
     -8.359  0.3842E+02  0.1289E+02
     -8.249  0.1570E+02  0.1462E+02
     -8.139  0.2133E+02  0.1697E+02
     -8.029  0.3596E+00  0.1701E+02
     -7.919  0.1660E+02  0.1883E+02
     -7.809  0.1135E+02  0.2008E+02
     -7.699  0.2199E+02  0.2250E+02
     -7.589  0.3230E+02  0.2605E+02
     -7.479  0.5793E+02  0.3243E+02
     -7.369  0.1416E+01  0.3258E+02
     -7.259  0.1609E+02  0.3435E+02
     -7.149  0.3249E+02  0.3792E+02
     -7.039  0.7453E+02  0.4612E+02
     -6.929  0.1637E+02  0.4792E+02
     -6.819  0.1444E+02  0.4951E+02
     -6.709  0.1988E+02  0.5170E+02
     -6.599  0.2498E+02  0.5445E+02
     -6.489  0.5050E+02  0.6000E+02
     -6.379  0.8127E+02  0.6894E+02
     -6.269  0.5433E+02  0.7491E+02
     -6.159  0.1984E+02  0.7710E+02
     -6.049  0.4974E+02  0.8257E+02
     -5.939  0.1002E+03  0.9359E+02
     -5.829  0.2189E+02  0.9600E+02
     -5.720  0.1909E+01  0.9621E+02
     -5.610  0.1807E+02  0.9820E+02
     -5.500  0.5771E+02  0.1045E+03
     -5.390  0.1528E+03  0.1213E+03
     -5.280  0.4427E+02  0.1262E+03
     -5.170  0.7916E+02  0.1349E+03
     -5.060  0.1066E+03  0.1466E+03
     -4.950  0.9226E+02  0.1568E+03
     -4.840  0.4122E+02  0.1613E+03
     -4.730  0.2394E+03  0.1877E+03
     -4.620  0.1545E+03  0.2046E+03
     -4.510  0.2360E+03  0.2306E+03
     -4.400  0.2463E+03  0.2577E+03
     -4.290  0.2900E+03  0.2896E+03
     -4.180  0.2536E+03  0.3175E+03
     -4.070  0.1949E+03  0.3389E+03
     -3.960  0.4152E+03  0.3846E+03
     -3.850  0.4579E+03  0.4349E+03
     -3.740  0.4882E+03  0.4886E+03
     -3.630  0.4030E+03  0.5330E+03
     -3.520  0.4685E+03  0.5845E+03
     -3.410  0.3630E+03  0.6244E+03
     -3.300  0.3328E+03  0.6610E+03
     -3.190  0.4421E+03  0.7096E+03
     -3.080  0.5154E+03  0.7663E+03
     -2.970  0.3458E+03  0.8044E+03
     -2.860  0.5757E+03  0.8677E+03
     -2.750  0.5270E+03  0.9256E+03
     -2.640  0.5254E+03  0.9834E+03
     -2.530  0.5362E+03  0.1042E+04
     -2.420  0.6915E+03  0.1118E+04
     -2.310  0.7511E+03  0.1201E+04
     -2.200  0.9335E+03  0.1304E+04
     -2.090  0.7708E+03  0.1389E+04
     -1.980  0.9489E+03  0.1493E+04
     -1.870  0.6902E+03  0.1569E+04
     -1.760  0.5889E+03  0.1634E+04
     -1.650  0.5524E+03  0.1694E+04
     -1.540  0.5289E+03  0.1753E+04
     -1.430  0.7052E+03  0.1830E+04
     -1.320  0.8059E+03  0.1919E+04
     -1.210  0.5342E+03  0.1978E+04
     -1.100  0.6768E+03  0.2052E+04
     -0.990  0.7556E+03  0.2135E+04
     -0.880  0.8667E+03  0.2230E+04
     -0.770  0.6491E+03  0.2302E+04
     -0.660  0.1006E+04  0.2412E+04
     -0.550  0.1284E+04  0.2554E+04
     -0.440  0.7611E+03  0.2637E+04
     -0.330  0.2515E+03  0.2665E+04
     -0.220  0.1245E+03  0.2679E+04
     -0.110  0.1552E+03  0.2696E+04
     -0.000  0.1654E+03  0.2714E+04
      0.110  0.5515E+02  0.2720E+04
      0.220  0.6555E+02  0.2727E+04
      0.330  0.1737E+02  0.2729E+04
      0.440  0.1366E+03  0.2744E+04
      0.550  0.8057E+02  0.2753E+04
      0.660  0.9579E+02  0.2764E+04
      0.770  0.6966E+02  0.2771E+04
      0.880  0.1279E+03  0.2785E+04
      0.990  0.1365E+03  0.2800E+04
      1.100  0.1839E+02  0.2802E+04
      1.210  0.4273E+02  0.2807E+04
      1.320  0.1344E+03  0.2822E+04
      1.430  0.2362E+02  0.2824E+04
      1.540  0.6283E+02  0.2831E+04
      1.650  0.1131E+03  0.2844E+04
      1.760  0.7632E+02  0.2852E+04
      1.870  0.8541E+02  0.2862E+04
      1.980  0.9616E+02  0.2872E+04
      2.090  0.3481E+02  0.2876E+04
      2.200  0.8452E+02  0.2885E+04
      2.310  0.1361E+03  0.2900E+04
      2.420  0.4950E+02  0.2906E+04
      2.530  0.4715E+02  0.2911E+04
      2.640  0.4987E+02  0.2916E+04
      2.750  0.1331E+02  0.2918E+04
      2.860  0.3892E+02  0.2922E+04
      2.970  0.9174E+02  0.2932E+04
      3.080  0.2138E+03  0.2956E+04
      3.190  0.8734E+02  0.2965E+04
      3.300  0.2069E+02  0.2968E+04
      3.410  0.3873E+02  0.2972E+04
      3.520  0.1045E+03  0.2983E+04
      3.630  0.1872E+02  0.2985E+04
      3.740  0.8757E+02  0.2995E+04
      3.850  0.6359E+01  0.2996E+04
      3.960  0.2385E+02  0.2998E+04
      4.070  0.1155E+02  0.3000E+04
      4.179  0.6729E+02  0.3007E+04
      4.289  0.2519E+02  0.3010E+04
      4.399  0.7566E+02  0.3018E+04
      4.509  0.8015E+02  0.3027E+04
      4.619  0.6396E+02  0.3034E+04
      4.729  0.3655E+02  0.3038E+04
      4.839  0.2627E+00  0.3038E+04
      4.949  0.1313E-05  0.3038E+04
      5.059  0.5047E-15  0.3038E+04
      5.169  0.0000E+00  0.3038E+04
      5.279  0.0000E+00  0.3038E+04
      5.389  0.0000E+00  0.3038E+04
      5.499  0.0000E+00  0.3038E+04
      5.609  0.0000E+00  0.3038E+04
      5.719  0.0000E+00  0.3038E+04
      5.829  0.0000E+00  0.3038E+04
      5.939  0.0000E+00  0.3038E+04
      6.049  0.0000E+00  0.3038E+04
      6.159  0.0000E+00  0.3038E+04
