  254  254    1    1
  0.2268316E+02  0.1514622E-08  0.1514622E-08  0.2900000E-08  0.5000000E-15
   1.0000000000000000E-004
  CAR 
 NiAl                                    
   2532      4   1519
 
  0.1262379E-14  0.1262379E-14  0.1262379E-14  0.2500000E+00
    1      -25.337520   1.000000
    2      -14.656741   1.000000
    3       -9.128179   1.000000
    4       -8.598920   1.000000
    5       -8.220714   1.000000
    6       -8.220409   1.000000
    7       -8.220398   1.000000
    8       -8.220365   1.000000
    9       -8.220338   1.000000
   10       -8.220303   1.000000
   11       -7.771411   1.000000
   12       -7.717227   1.000000
   13       -7.714419   1.000000
   14       -7.714380   1.000000
   15       -7.714353   1.000000
   16       -7.714335   1.000000
   17       -7.714303   1.000000
   18       -7.308929   1.000000
   19       -6.931720   1.000000
   20       -6.926413   1.000000
   21       -6.926141   1.000000
   22       -6.926113   1.000000
   23       -6.926087   1.000000
   24       -6.926047   1.000000
   25       -6.744815   1.000000
   26       -6.582644   1.000000
   27       -6.580118   1.000000
   28       -6.580008   1.000000
   29       -6.579957   1.000000
   30       -6.579899   1.000000
   31       -6.579870   1.000000
   32       -6.515616   1.000000
   33       -6.421324   1.000000
   34       -6.157409   1.000000
   35       -6.157301   1.000000
   36       -6.157283   1.000000
   37       -6.157255   1.000000
   38       -6.156674   1.000000
   39       -6.155030   1.000000
   40       -5.954324   1.000000
   41       -5.954305   1.000000
   42       -5.954291   1.000000
   43       -5.954173   1.000000
   44       -5.953131   1.000000
   45       -5.949347   1.000000
   46       -5.949333   1.000000
   47       -5.949326   1.000000
   48       -5.949264   1.000000
   49       -5.949199   1.000000
   50       -5.949167   1.000000
   51       -5.939078   1.000000
   52       -5.711235   1.000000
   53       -5.614426   1.000000
   54       -5.614317   1.000000
   55       -5.614264   1.000000
   56       -5.614187   1.000000
   57       -5.614083   1.000000
   58       -5.613767   1.000000
   59       -5.524367   1.000000
   60       -5.524179   1.000000
   61       -5.524159   1.000000
   62       -5.524139   1.000000
   63       -5.523756   1.000000
   64       -5.522045   1.000000
   65       -5.157062   1.000000
   66       -5.156912   1.000000
   67       -5.156845   1.000000
   68       -5.156790   1.000000
   69       -5.156649   1.000000
   70       -5.156325   1.000000
   71       -5.058031   1.000000
   72       -5.003538   1.000000
   73       -5.003514   1.000000
   74       -5.003497   1.000000
   75       -5.003429   1.000000
   76       -5.002874   1.000000
   77       -4.995216   1.000000
   78       -4.868716   1.000000
   79       -4.811462   1.000000
   80       -4.811455   1.000000
   81       -4.811395   1.000000
   82       -4.793216   1.000000
   83       -4.793073   1.000000
   84       -4.793043   1.000000
   85       -4.792998   1.000000
   86       -4.792669   1.000000
   87       -4.791087   1.000000
   88       -4.689236   1.000000
   89       -4.689110   1.000000
   90       -4.689065   1.000000
   91       -4.689041   1.000000
   92       -4.688878   1.000000
   93       -4.688477   1.000000
   94       -4.655441   1.000000
   95       -4.655402   1.000000
   96       -4.655271   1.000000
   97       -4.579394   1.000000
   98       -4.579317   1.000000
   99       -4.579296   1.000000
  100       -4.579260   1.000000
  101       -4.579231   1.000000
  102       -4.579208   1.000000
  103       -4.579191   1.000000
  104       -4.579180   1.000000
  105       -4.579148   1.000000
  106       -4.579130   1.000000
  107       -4.579123   1.000000
  108       -4.579118   1.000000
  109       -4.533463   1.000000
  110       -4.533449   1.000000
  111       -4.533362   1.000000
  112       -4.447144   1.000000
  113       -4.447073   1.000000
  114       -4.446946   1.000000
  115       -4.425635   1.000000
  116       -4.425417   1.000000
  117       -4.425378   1.000000
  118       -4.425344   1.000000
  119       -4.425097   1.000000
  120       -4.421073   1.000000
  121       -4.380984   1.000000
  122       -4.380881   1.000000
  123       -4.380859   1.000000
  124       -4.380820   1.000000
  125       -4.380791   1.000000
  126       -4.380754   1.000000
  127       -4.380744   1.000000
  128       -4.380720   1.000000
  129       -4.380706   1.000000
  130       -4.380685   1.000000
  131       -4.380676   1.000000
  132       -4.380645   1.000000
  133       -4.346435   1.000000
  134       -4.346414   1.000000
  135       -4.346379   1.000000
  136       -4.346325   1.000000
  137       -4.346311   1.000000
  138       -4.346276   1.000000
  139       -4.346242   1.000000
  140       -4.346234   1.000000
  141       -4.346212   1.000000
  142       -4.346181   1.000000
  143       -4.346166   1.000000
  144       -4.346040   1.000000
  145       -4.301680   1.000000
  146       -4.301509   1.000000
  147       -4.301498   1.000000
  148       -4.301430   1.000000
  149       -4.301362   1.000000
  150       -4.299868   1.000000
  151       -4.265428   1.000000
  152       -4.265238   1.000000
  153       -4.265215   1.000000
  154       -4.265174   1.000000
  155       -4.265073   1.000000
  156       -4.264511   1.000000
  157       -4.245306   1.000000
  158       -4.245277   1.000000
  159       -4.245172   1.000000
  160       -4.208584   1.000000
  161       -4.208495   1.000000
  162       -4.208454   1.000000
  163       -4.208431   1.000000
  164       -4.208393   1.000000
  165       -4.208307   1.000000
  166       -4.208274   1.000000
  167       -4.208227   1.000000
  168       -4.208215   1.000000
  169       -4.208192   1.000000
  170       -4.208174   1.000000
  171       -4.208127   1.000000
  172       -4.138482   1.000000
  173       -4.138322   1.000000
  174       -4.138311   1.000000
  175       -4.138288   1.000000
  176       -4.138052   1.000000
  177       -4.136934   1.000000
  178       -4.099033   1.000000
  179       -4.099009   1.000000
  180       -4.098829   1.000000
  181       -4.031092   1.000000
  182       -4.030943   1.000000
  183       -4.030844   1.000000
  184       -4.008859   1.000000
  185       -4.008663   1.000000
  186       -4.008577   1.000000
  187       -4.008458   1.000000
  188       -4.008446   1.000000
  189       -4.008422   1.000000
  190       -4.008366   1.000000
  191       -4.008343   1.000000
  192       -4.008283   1.000000
  193       -4.008244   1.000000
  194       -4.008235   1.000000
  195       -4.008161   1.000000
  196       -3.945406   1.000000
  197       -3.945383   1.000000
  198       -3.945178   1.000000
  199       -3.891110   1.000000
  200       -3.891033   1.000000
  201       -3.890934   1.000000
  202       -3.888672   1.000000
  203       -3.888581   1.000000
  204       -3.888469   1.000000
  205       -3.888452   1.000000
  206       -3.888306   1.000000
  207       -3.887851   1.000000
  208       -3.819151   1.000000
  209       -3.819126   1.000000
  210       -3.819056   1.000000
  211       -3.819042   1.000000
  212       -3.819026   1.000000
  213       -3.818987   1.000000
  214       -3.818972   1.000000
  215       -3.818962   1.000000
  216       -3.818924   1.000000
  217       -3.818835   1.000000
  218       -3.818811   1.000000
  219       -3.818743   1.000000
  220       -3.813063   1.000000
  221       -3.813005   1.000000
  222       -3.812873   1.000000
  223       -3.812859   1.000000
  224       -3.812803   1.000000
  225       -3.812706   1.000000
  226       -3.760500   1.000000
  227       -3.760303   1.000000
  228       -3.760112   1.000000
  229       -3.760095   1.000000
  230       -3.760048   1.000000
  231       -3.759969   1.000000
  232       -3.759942   1.000000
  233       -3.759912   1.000000
  234       -3.759868   1.000000
  235       -3.759821   1.000000
  236       -3.759765   1.000000
  237       -3.759725   1.000000
  238       -3.737127   1.000000
  239       -3.737002   1.000000
  240       -3.736973   1.000000
  241       -3.736922   1.000000
  242       -3.736836   1.000000
  243       -3.736361   1.000000
  244       -3.697612   1.000000
  245       -3.697520   1.000000
  246       -3.697506   1.000000
  247       -3.697455   1.000000
  248       -3.697384   1.000000
  249       -3.697300   1.000000
  250       -3.693734   1.000000
  251       -3.693662   1.000000
  252       -3.693556   1.000000
  253       -3.693551   1.000000
  254       -3.685408   1.000000
  255       -3.685301   1.000000
  256       -3.631271   1.000000
  257       -3.631032   1.000000
  258       -3.630964   1.000000
  259       -3.630932   1.000000
  260       -3.630916   1.000000
  261       -3.630894   1.000000
  262       -3.630866   1.000000
  263       -3.630835   1.000000
  264       -3.630790   1.000000
  265       -3.630722   1.000000
  266       -3.630678   1.000000
  267       -3.630664   1.000000
  268       -3.622380   1.000000
  269       -3.622285   1.000000
  270       -3.622173   1.000000
  271       -3.597822   1.000000
  272       -3.597677   1.000000
  273       -3.597639   1.000000
  274       -3.597624   1.000000
  275       -3.575821   1.000000
  276       -3.575561   1.000000
  277       -3.575482   1.000000
  278       -3.575388   1.000000
  279       -3.575344   1.000000
  280       -3.575155   1.000000
  281       -3.564090   1.000000
  282       -3.563990   1.000000
  283       -3.553717   1.000000
  284       -3.553667   1.000000
  285       -3.553608   1.000000
  286       -3.553575   1.000000
  287       -3.551934   1.000000
  288       -3.551834   1.000000
  289       -3.548913   1.000000
  290       -3.548767   1.000000
  291       -3.548605   1.000000
  292       -3.548580   1.000000
  293       -3.548558   1.000000
  294       -3.548203   1.000000
  295       -3.480348   1.000000
  296       -3.480198   1.000000
  297       -3.479893   1.000000
  298       -3.479877   1.000000
  299       -3.472752   1.000000
  300       -3.472639   1.000000
  301       -3.472520   1.000000
  302       -3.472449   1.000000
  303       -3.472441   1.000000
  304       -3.472387   1.000000
  305       -3.472364   1.000000
  306       -3.472357   1.000000
  307       -3.472304   1.000000
  308       -3.472270   1.000000
  309       -3.472201   1.000000
  310       -3.472135   1.000000
  311       -3.400975   1.000000
  312       -3.400898   1.000000
  313       -3.400824   1.000000
  314       -3.400798   1.000000
  315       -3.400703   1.000000
  316       -3.400685   1.000000
  317       -3.365381   1.000000
  318       -3.365172   1.000000
  319       -3.365066   1.000000
  320       -3.364891   1.000000
  321       -3.364748   1.000000
  322       -3.364741   1.000000
  323       -3.364687   1.000000
  324       -3.364661   1.000000
  325       -3.364624   1.000000
  326       -3.364569   1.000000
  327       -3.364527   1.000000
  328       -3.364519   1.000000
  329       -3.354471   1.000000
  330       -3.354210   1.000000
  331       -3.354145   1.000000
  332       -3.354104   1.000000
  333       -3.354016   1.000000
  334       -3.353967   1.000000
  335       -3.347310   1.000000
  336       -3.347145   1.000000
  337       -3.347064   1.000000
  338       -3.346954   1.000000
  339       -3.346855   1.000000
  340       -3.346549   1.000000
  341       -3.259288   1.000000
  342       -3.259064   1.000000
  343       -3.259020   1.000000
  344       -3.219725   1.000000
  345       -3.219276   1.000000
  346       -3.219184   1.000000
  347       -3.219150   1.000000
  348       -3.219082   1.000000
  349       -3.219029   1.000000
  350       -3.208059   1.000000
  351       -3.207728   1.000000
  352       -3.185223   1.000000
  353       -3.185095   1.000000
  354       -3.185062   1.000000
  355       -3.184839   1.000000
  356       -3.184801   1.000000
  357       -3.184769   1.000000
  358       -3.184705   1.000000
  359       -3.184637   1.000000
  360       -3.184602   1.000000
  361       -3.184568   1.000000
  362       -3.184507   1.000000
  363       -3.184407   1.000000
  364       -3.175732   1.000000
  365       -3.175380   1.000000
  366       -3.113922   1.000000
  367       -3.113808   1.000000
  368       -3.113708   1.000000
  369       -3.113611   1.000000
  370       -3.113462   1.000000
  371       -3.113203   1.000000
  372       -3.088798   1.000000
  373       -3.088565   1.000000
  374       -3.088274   1.000000
  375       -3.088168   1.000000
  376       -3.088153   1.000000
  377       -3.088038   1.000000
  378       -3.087805   1.000000
  379       -3.087712   1.000000
  380       -3.087650   1.000000
  381       -3.087614   1.000000
  382       -3.087582   1.000000
  383       -3.087449   1.000000
  384       -3.036883   1.000000
  385       -3.036481   1.000000
  386       -3.036280   1.000000
  387       -3.036240   1.000000
  388       -3.036127   1.000000
  389       -3.036101   1.000000
  390       -3.036077   1.000000
  391       -3.036058   1.000000
  392       -3.036028   1.000000
  393       -3.035981   1.000000
  394       -3.035888   1.000000
  395       -3.035851   1.000000
  396       -2.981042   1.000000
  397       -2.981020   1.000000
  398       -2.980906   1.000000
  399       -2.980858   1.000000
  400       -2.980799   1.000000
  401       -2.980717   1.000000
  402       -2.922248   1.000000
  403       -2.922042   1.000000
  404       -2.921978   1.000000
  405       -2.921959   1.000000
  406       -2.921732   1.000000
  407       -2.920598   1.000000
  408       -2.912042   1.000000
  409       -2.911755   1.000000
  410       -2.911734   1.000000
  411       -2.911673   1.000000
  412       -2.911633   1.000000
  413       -2.911426   1.000000
  414       -2.885477   1.000000
  415       -2.885438   1.000000
  416       -2.885334   1.000000
  417       -2.885300   1.000000
  418       -2.885250   1.000000
  419       -2.885189   1.000000
  420       -2.879345   1.000000
  421       -2.879123   1.000000
  422       -2.879063   1.000000
  423       -2.879025   1.000000
  424       -2.878869   1.000000
  425       -2.878022   1.000000
  426       -2.856070   1.000000
  427       -2.855941   1.000000
  428       -2.855756   1.000000
  429       -2.855682   1.000000
  430       -2.855548   1.000000
  431       -2.855308   1.000000
  432       -2.852018   1.000000
  433       -2.851867   1.000000
  434       -2.851670   1.000000
  435       -2.851569   1.000000
  436       -2.851515   1.000000
  437       -2.851459   1.000000
  438       -2.851439   1.000000
  439       -2.851436   1.000000
  440       -2.851401   1.000000
  441       -2.851360   1.000000
  442       -2.851289   1.000000
  443       -2.851231   1.000000
  444       -2.788371   1.000000
  445       -2.788160   1.000000
  446       -2.787928   1.000000
  447       -2.778761   1.000000
  448       -2.778607   1.000000
  449       -2.778575   1.000000
  450       -2.778457   1.000000
  451       -2.778443   1.000000
  452       -2.778438   1.000000
  453       -2.778353   1.000000
  454       -2.778293   1.000000
  455       -2.778257   1.000000
  456       -2.778230   1.000000
  457       -2.778207   1.000000
  458       -2.778147   1.000000
  459       -2.775287   1.000000
  460       -2.775066   1.000000
  461       -2.774822   1.000000
  462       -2.774738   1.000000
  463       -2.774633   1.000000
  464       -2.774366   1.000000
  465       -2.737404   1.000000
  466       -2.737369   1.000000
  467       -2.737179   1.000000
  468       -2.737154   1.000000
  469       -2.687606   1.000000
  470       -2.687511   1.000000
  471       -2.687451   1.000000
  472       -2.687440   1.000000
  473       -2.687325   1.000000
  474       -2.687004   1.000000
  475       -2.684092   1.000000
  476       -2.683923   1.000000
  477       -2.682206   1.000000
  478       -2.682028   1.000000
  479       -2.681807   1.000000
  480       -2.681765   1.000000
  481       -2.681743   1.000000
  482       -2.681650   1.000000
  483       -2.681493   1.000000
  484       -2.681353   1.000000
  485       -2.681340   1.000000
  486       -2.681249   1.000000
  487       -2.681206   1.000000
  488       -2.681152   1.000000
  489       -2.676050   1.000000
  490       -2.675933   1.000000
  491       -2.675907   1.000000
  492       -2.675675   1.000000
  493       -2.675642   1.000000
  494       -2.675630   1.000000
  495       -2.675568   1.000000
  496       -2.675560   1.000000
  497       -2.675544   1.000000
  498       -2.675505   1.000000
  499       -2.675496   1.000000
  500       -2.675437   1.000000
  501       -2.623491   1.000000
  502       -2.623478   1.000000
  503       -2.623451   1.000000
  504       -2.623390   1.000000
  505       -2.623278   1.000000
  506       -2.621885   1.000000
  507       -2.615560   1.000000
  508       -2.615499   1.000000
  509       -2.615451   1.000000
  510       -2.615387   1.000000
  511       -2.615359   1.000000
  512       -2.615227   1.000000
  513       -2.589710   1.000000
  514       -2.589642   1.000000
  515       -2.589583   1.000000
  516       -2.589579   1.000000
  517       -2.579290   1.000000
  518       -2.562402   1.000000
  519       -2.561524   1.000000
  520       -2.561460   1.000000
  521       -2.561415   1.000000
  522       -2.561225   1.000000
  523       -2.560279   1.000000
  524       -2.540120   1.000000
  525       -2.517324   1.000000
  526       -2.517083   1.000000
  527       -2.516795   1.000000
  528       -2.516652   1.000000
  529       -2.516622   1.000000
  530       -2.516558   1.000000
  531       -2.516536   1.000000
  532       -2.516488   1.000000
  533       -2.516481   1.000000
  534       -2.516369   1.000000
  535       -2.516306   1.000000
  536       -2.516236   1.000000
  537       -2.501083   1.000000
  538       -2.500041   1.000000
  539       -2.499988   1.000000
  540       -2.499836   1.000000
  541       -2.499598   1.000000
  542       -2.497497   1.000000
  543       -2.473551   1.000000
  544       -2.473517   1.000000
  545       -2.473315   1.000000
  546       -2.458566   1.000000
  547       -2.458459   1.000000
  548       -2.458385   1.000000
  549       -2.458352   1.000000
  550       -2.458101   1.000000
  551       -2.456167   1.000000
  552       -2.445159   1.000000
  553       -2.445008   1.000000
  554       -2.444967   1.000000
  555       -2.444840   1.000000
  556       -2.444790   1.000000
  557       -2.444742   1.000000
  558       -2.444687   1.000000
  559       -2.444684   1.000000
  560       -2.444664   1.000000
  561       -2.444623   1.000000
  562       -2.444617   1.000000
  563       -2.444567   1.000000
  564       -2.436351   1.000000
  565       -2.435961   1.000000
  566       -2.435857   1.000000
  567       -2.435816   1.000000
  568       -2.435565   1.000000
  569       -2.434840   1.000000
  570       -2.434762   1.000000
  571       -2.434728   1.000000
  572       -2.433516   1.000000
  573       -2.384617   1.000000
  574       -2.384497   1.000000
  575       -2.384466   1.000000
  576       -2.384268   1.000000
  577       -2.384145   1.000000
  578       -2.383620   1.000000
  579       -2.382719   1.000000
  580       -2.382537   1.000000
  581       -2.381087   1.000000
  582       -2.380872   1.000000
  583       -2.369714   1.000000
  584       -2.369599   1.000000
  585       -2.369362   1.000000
  586       -2.369333   1.000000
  587       -2.369295   1.000000
  588       -2.368969   1.000000
  589       -2.351239   1.000000
  590       -2.341251   1.000000
  591       -2.341114   1.000000
  592       -2.341001   1.000000
  593       -2.340971   1.000000
  594       -2.340936   1.000000
  595       -2.340605   1.000000
  596       -2.327668   1.000000
  597       -2.327616   1.000000
  598       -2.327595   1.000000
  599       -2.327559   1.000000
  600       -2.327506   1.000000
  601       -2.327502   1.000000
  602       -2.322495   1.000000
  603       -2.322469   1.000000
  604       -2.322301   1.000000
  605       -2.308711   1.000000
  606       -2.308691   1.000000
  607       -2.308603   1.000000
  608       -2.308551   1.000000
  609       -2.308538   1.000000
  610       -2.308518   1.000000
  611       -2.293070   1.000000
  612       -2.292848   1.000000
  613       -2.268594   1.000000
  614       -2.268414   1.000000
  615       -2.268315   1.000000
  616       -2.265311   1.000000
  617       -2.264785   1.000000
  618       -2.264474   1.000000
  619       -2.264190   1.000000
  620       -2.264056   1.000000
  621       -2.263998   1.000000
  622       -2.263495   1.000000
  623       -2.248322   1.000000
  624       -2.248119   1.000000
  625       -2.233757   1.000000
  626       -2.233733   1.000000
  627       -2.233657   1.000000
  628       -2.233632   1.000000
  629       -2.233570   1.000000
  630       -2.233539   1.000000
  631       -2.227497   1.000000
  632       -2.227383   1.000000
  633       -2.227314   1.000000
  634       -2.210276   1.000000
  635       -2.210203   1.000000
  636       -2.210128   1.000000
  637       -2.210031   1.000000
  638       -2.209962   1.000000
  639       -2.209910   1.000000
  640       -2.199227   1.000000
  641       -2.198984   1.000000
  642       -2.198920   1.000000
  643       -2.187116   1.000000
  644       -2.186341   1.000000
  645       -2.186124   1.000000
  646       -2.186092   1.000000
  647       -2.186090   1.000000
  648       -2.186040   1.000000
  649       -2.182743   1.000000
  650       -2.182585   1.000000
  651       -2.182411   1.000000
  652       -2.182266   1.000000
  653       -2.182020   1.000000
  654       -2.181988   1.000000
  655       -2.181952   1.000000
  656       -2.181905   1.000000
  657       -2.181852   1.000000
  658       -2.181805   1.000000
  659       -2.181742   1.000000
  660       -2.181653   1.000000
  661       -2.173662   1.000000
  662       -2.173173   1.000000
  663       -2.172709   1.000000
  664       -2.172570   1.000000
  665       -2.172518   1.000000
  666       -2.172486   1.000000
  667       -2.167707   1.000000
  668       -2.167466   1.000000
  669       -2.167409   1.000000
  670       -2.167239   1.000000
  671       -2.167030   1.000000
  672       -2.166881   1.000000
  673       -2.121256   1.000000
  674       -2.120973   1.000000
  675       -2.120759   1.000000
  676       -2.120689   1.000000
  677       -2.120630   1.000000
  678       -2.120451   1.000000
  679       -2.114349   1.000000
  680       -2.099186   1.000000
  681       -2.098866   1.000000
  682       -2.098730   1.000000
  683       -2.098640   1.000000
  684       -2.098612   1.000000
  685       -2.098571   1.000000
  686       -2.076180   1.000000
  687       -2.074358   1.000000
  688       -2.074255   1.000000
  689       -2.074214   1.000000
  690       -2.070527   1.000000
  691       -2.070137   1.000000
  692       -2.069779   1.000000
  693       -2.069268   1.000000
  694       -2.069135   1.000000
  695       -2.069030   1.000000
  696       -2.068957   1.000000
  697       -2.068932   1.000000
  698       -2.068903   1.000000
  699       -2.068789   1.000000
  700       -2.068617   1.000000
  701       -2.068549   1.000000
  702       -2.063510   1.000000
  703       -2.063300   1.000000
  704       -2.054921   1.000000
  705       -2.054710   1.000000
  706       -2.054702   1.000000
  707       -2.054650   1.000000
  708       -2.054603   1.000000
  709       -2.054561   1.000000
  710       -2.054524   1.000000
  711       -2.054504   1.000000
  712       -2.054474   1.000000
  713       -2.054450   1.000000
  714       -2.054383   1.000000
  715       -2.054332   1.000000
  716       -2.051530   1.000000
  717       -2.051324   1.000000
  718       -2.028687   1.000000
  719       -2.028616   1.000000
  720       -2.028576   1.000000
  721       -2.028478   1.000000
  722       -2.028441   1.000000
  723       -2.028384   1.000000
  724       -2.005946   1.000000
  725       -2.005285   1.000000
  726       -2.005065   1.000000
  727       -2.004617   1.000000
  728       -2.004267   1.000000
  729       -2.003483   1.000000
  730       -1.984900   1.000000
  731       -1.983463   1.000000
  732       -1.982837   1.000000
  733       -1.982757   1.000000
  734       -1.982702   1.000000
  735       -1.982686   1.000000
  736       -1.982667   1.000000
  737       -1.982614   1.000000
  738       -1.982589   1.000000
  739       -1.982582   1.000000
  740       -1.982402   1.000000
  741       -1.981765   1.000000
  742       -1.939166   1.000000
  743       -1.939055   1.000000
  744       -1.939032   1.000000
  745       -1.938874   1.000000
  746       -1.938847   1.000000
  747       -1.938750   1.000000
  748       -1.932186   1.000000
  749       -1.932045   1.000000
  750       -1.931938   1.000000
  751       -1.931837   1.000000
  752       -1.931689   1.000000
  753       -1.930662   1.000000
  754       -1.886169   1.000000
  755       -1.884586   1.000000
  756       -1.884092   1.000000
  757       -1.883784   1.000000
  758       -1.883756   1.000000
  759       -1.883750   1.000000
  760       -1.883730   1.000000
  761       -1.883673   1.000000
  762       -1.883626   1.000000
  763       -1.883614   1.000000
  764       -1.883582   1.000000
  765       -1.883294   1.000000
  766       -1.880156   1.000000
  767       -1.880110   1.000000
  768       -1.879956   1.000000
  769       -1.879930   1.000000
  770       -1.879845   1.000000
  771       -1.879224   1.000000
  772       -1.873589   1.000000
  773       -1.873477   1.000000
  774       -1.873311   1.000000
  775       -1.873303   1.000000
  776       -1.873232   1.000000
  777       -1.872714   1.000000
  778       -1.841546   1.000000
  779       -1.841463   1.000000
  780       -1.841348   1.000000
  781       -1.837526   1.000000
  782       -1.837437   1.000000
  783       -1.837375   1.000000
  784       -1.837297   1.000000
  785       -1.837267   1.000000
  786       -1.837118   1.000000
  787       -1.821027   1.000000
  788       -1.818751   1.000000
  789       -1.817798   1.000000
  790       -1.817714   1.000000
  791       -1.817309   1.000000
  792       -1.815148   1.000000
  793       -1.812801   1.000000
  794       -1.812753   1.000000
  795       -1.812597   1.000000
  796       -1.812502   1.000000
  797       -1.812402   1.000000
  798       -1.812358   1.000000
  799       -1.792336   1.000000
  800       -1.792102   1.000000
  801       -1.791958   1.000000
  802       -1.791910   1.000000
  803       -1.791808   1.000000
  804       -1.791670   1.000000
  805       -1.785920   1.000000
  806       -1.784370   1.000000
  807       -1.783980   1.000000
  808       -1.783815   1.000000
  809       -1.783748   1.000000
  810       -1.783679   1.000000
  811       -1.783635   1.000000
  812       -1.783588   1.000000
  813       -1.783523   1.000000
  814       -1.783435   1.000000
  815       -1.783375   1.000000
  816       -1.782803   1.000000
  817       -1.747311   1.000000
  818       -1.745402   1.000000
  819       -1.745202   1.000000
  820       -1.744721   1.000000
  821       -1.744651   1.000000
  822       -1.744634   1.000000
  823       -1.744599   1.000000
  824       -1.744489   1.000000
  825       -1.744480   1.000000
  826       -1.744432   1.000000
  827       -1.744414   1.000000
  828       -1.743967   1.000000
  829       -1.711277   1.000000
  830       -1.711103   1.000000
  831       -1.710891   1.000000
  832       -1.710856   1.000000
  833       -1.710802   1.000000
  834       -1.710689   1.000000
  835       -1.710389   1.000000
  836       -1.709896   1.000000
  837       -1.709837   1.000000
  838       -1.705885   1.000000
  839       -1.705809   1.000000
  840       -1.705761   1.000000
  841       -1.705670   1.000000
  842       -1.705570   1.000000
  843       -1.705441   1.000000
  844       -1.695146   1.000000
  845       -1.694243   1.000000
  846       -1.694176   1.000000
  847       -1.694139   1.000000
  848       -1.693974   1.000000
  849       -1.693888   1.000000
  850       -1.686614   1.000000
  851       -1.685283   1.000000
  852       -1.685096   1.000000
  853       -1.684998   1.000000
  854       -1.684382   1.000000
  855       -1.683028   1.000000
  856       -1.682506   1.000000
  857       -1.681547   1.000000
  858       -1.681285   1.000000
  859       -1.680882   1.000000
  860       -1.680365   1.000000
  861       -1.674685   1.000000
  862       -1.661324   1.000000
  863       -1.661295   1.000000
  864       -1.661087   1.000000
  865       -1.628325   1.000000
  866       -1.626572   1.000000
  867       -1.626494   1.000000
  868       -1.626369   1.000000
  869       -1.626199   1.000000
  870       -1.625385   1.000000
  871       -1.596678   1.000000
  872       -1.596141   1.000000
  873       -1.595996   1.000000
  874       -1.595958   1.000000
  875       -1.595825   1.000000
  876       -1.595748   1.000000
  877       -1.595612   1.000000
  878       -1.595604   1.000000
  879       -1.595545   1.000000
  880       -1.595534   1.000000
  881       -1.595373   1.000000
  882       -1.595272   1.000000
  883       -1.584285   1.000000
  884       -1.576130   1.000000
  885       -1.574553   1.000000
  886       -1.574467   1.000000
  887       -1.574206   1.000000
  888       -1.572838   1.000000
  889       -1.555371   1.000000
  890       -1.523562   1.000000
  891       -1.523492   1.000000
  892       -1.523353   1.000000
  893       -1.523257   1.000000
  894       -1.523221   1.000000
  895       -1.523169   1.000000
  896       -1.470940   1.000000
  897       -1.469363   1.000000
  898       -1.468917   1.000000
  899       -1.468776   1.000000
  900       -1.468334   1.000000
  901       -1.467750   1.000000