 running on    1 total cores
 distrk:  each k-point on    1 cores,    1 groups
 distr:  one band on    1 cores,    1 groups
 OpenACC runtime initialized ...    1 GPUs detected
 vasp.6.2.1 16May21 (build Jun 16 2021 03:23:30) complex                         
 POSCAR found type information on POSCAR AlO 
 POSCAR found :  2 types and     254 ions
 scaLAPACK will be used selectively (only on CPU)
 LDA part: xc-table for Pade appr. of Perdew
 POSCAR found type information on POSCAR AlO 
 POSCAR found :  2 types and     254 ions
 POSCAR, INCAR and KPOINTS ok, starting setup
 FFT: planning ...
 WAVECAR not read
 entering main loop
       N       E                     dE             d eps       ncg     rms          rms(c)
DAV:   1     0.240786403662E+04    0.24079E+04   -0.20495E+05  4144   0.854E+02
DAV:   2    -0.689489181093E+03   -0.30974E+04   -0.29236E+04  5560   0.202E+02
DAV:   3    -0.936433404251E+03   -0.24694E+03   -0.23623E+03  5912   0.450E+01
DAV:   4    -0.954286607508E+03   -0.17853E+02   -0.16638E+02  6488   0.102E+01
DAV:   5    -0.955573739564E+03   -0.12871E+01   -0.12746E+01  6128   0.259E+00    0.573E+01
DAV:   6    -0.967553982017E+03   -0.11980E+02   -0.19430E+02  5896   0.169E+01    0.389E+01
DAV:   7    -0.966052744003E+03    0.15012E+01   -0.31259E+02  5672   0.257E+01    0.325E+01
DAV:   8    -0.941257199066E+03    0.24796E+02   -0.18433E+02  5688   0.185E+01    0.165E+01
DAV:   9    -0.983498250896E+03   -0.42241E+02   -0.43956E+01  5416   0.198E+01    0.228E+01
DAV:  10    -0.928746754901E+03    0.54751E+02   -0.48104E+01  6064   0.151E+01    0.923E+00
DAV:  11    -0.928059362810E+03    0.68739E+00   -0.18166E+01  5240   0.495E+00    0.598E+00
DAV:  12    -0.927128886399E+03    0.93048E+00   -0.39345E+00  5552   0.262E+00    0.287E+00
DAV:  13    -0.926955122635E+03    0.17376E+00   -0.78119E-01  5088   0.105E+00    0.227E+00
DAV:  14    -0.926902168506E+03    0.52954E-01   -0.13197E-01  5520   0.471E-01    0.204E+00
DAV:  15    -0.926748309994E+03    0.15386E+00   -0.10214E-01  5744   0.498E-01    0.147E+00
DAV:  16    -0.926600222934E+03    0.14809E+00   -0.74775E-01  5992   0.125E+00    0.141E+00
DAV:  17    -0.926630054157E+03   -0.29831E-01   -0.35304E-01  4760   0.490E-01    0.107E+00
DAV:  18    -0.926625333109E+03    0.47210E-02   -0.18525E-02  6528   0.137E-01    0.984E-01
DAV:  19    -0.926617242591E+03    0.80905E-02   -0.61588E-03  6656   0.127E-01    0.692E-01
DAV:  20    -0.926612441986E+03    0.48006E-02   -0.66796E-02  6432   0.457E-01    0.367E-01
DAV:  21    -0.926621068004E+03   -0.86260E-02   -0.45556E-02  4856   0.184E-01    0.514E-01
DAV:  22    -0.926622038398E+03   -0.97039E-03   -0.33302E-03  5768   0.707E-02    0.460E-01
DAV:  23    -0.926621534286E+03    0.50411E-03   -0.73203E-03  5680   0.159E-01    0.241E-01
DAV:  24    -0.926622813237E+03   -0.12790E-02   -0.11795E-02  5000   0.113E-01    0.209E-01
DAV:  25    -0.926623304620E+03   -0.49138E-03   -0.12643E-03  5680   0.425E-02    0.166E-01
DAV:  26    -0.926624303893E+03   -0.99927E-03   -0.73548E-04  5032   0.256E-02    0.148E-01
DAV:  27    -0.926624998546E+03   -0.69465E-03   -0.33117E-04  5688   0.231E-02    0.108E-01
DAV:  28    -0.926625488551E+03   -0.49000E-03   -0.30585E-04  5736   0.256E-02    0.711E-02
DAV:  29    -0.926626056152E+03   -0.56760E-03   -0.40568E-04  5912   0.276E-02    0.297E-02
DAV:  30    -0.926626530555E+03   -0.47440E-03   -0.14040E-04  4704   0.118E-02    0.279E-02
DAV:  31    -0.926627025856E+03   -0.49530E-03   -0.68945E-05  4880   0.103E-02    0.292E-02
DAV:  32    -0.926627307771E+03   -0.28191E-03   -0.51167E-05  4344   0.810E-03    0.239E-02
DAV:  33    -0.926627652520E+03   -0.34475E-03   -0.58982E-05  3992   0.133E-02    0.141E-02
DAV:  34    -0.926627831097E+03   -0.17858E-03   -0.54050E-05  4416   0.651E-03    0.104E-02
DAV:  35    -0.926627864064E+03   -0.32967E-04   -0.41791E-06  2752   0.414E-03    0.606E-03
DAV:  36    -0.926627904803E+03   -0.40739E-04   -0.69384E-06  3048   0.290E-03    0.218E-03
DAV:  37    -0.926627948059E+03   -0.43255E-04   -0.21276E-06  2728   0.158E-03    0.894E-04
DAV:  38    -0.926627964976E+03   -0.16917E-04   -0.82098E-07  2640   0.938E-04    0.104E-03
DAV:  39    -0.926627969736E+03   -0.47599E-05   -0.31473E-07  2320   0.617E-04
   1 F= -.99942229E+03 E0= -.99938774E+03  d E =-.999422E+03
 curvature:   0.00 expect dE= 0.000E+00 dE for cont linesearch  0.000E+00
 trial: gam= 0.00000 g(F)=  0.343E+02 g(S)=  0.000E+00 ort = 0.000E+00 (trialstep = 0.100E+01)
 search vector abs. value=  0.343E+02
 bond charge predicted
       N       E                     dE             d eps       ncg     rms          rms(c)
DAV:   1    -0.916674874706E+03    0.99531E+01   -0.30452E+03  4184   0.520E+01    0.403E+01
DAV:   2    -0.932839593923E+03   -0.16165E+02   -0.21890E+02  5008   0.127E+01    0.412E+01
DAV:   3    -0.934126561562E+03   -0.12870E+01   -0.86066E+01  5424   0.809E+00    0.343E+01
DAV:   4    -0.102620806765E+04   -0.92082E+02   -0.50859E+01  5936   0.242E+01    0.382E+01
DAV:   5    -0.957386909741E+03    0.68821E+02   -0.62573E+01  6288   0.193E+01    0.336E+01
DAV:   6    -0.951777266944E+03    0.56096E+01   -0.38553E+01  5272   0.548E+00    0.330E+01
DAV:   7    -0.963735432379E+03   -0.11958E+02   -0.44527E+00  6408   0.346E+00    0.350E+01
DAV:   8    -0.950638548044E+03    0.13097E+02   -0.13709E+00  5880   0.244E+00    0.326E+01
DAV:   9    -0.924805689622E+03    0.25833E+02   -0.91911E+01  7088   0.623E+00    0.108E+01
DAV:  10    -0.941539510274E+03   -0.16734E+02   -0.13449E+02  5496   0.108E+01    0.178E+01
DAV:  11    -0.943658188897E+03   -0.21187E+01   -0.11422E+01  5384   0.351E+00    0.196E+01
DAV:  12    -0.942984671322E+03    0.67352E+00   -0.49771E-01  5576   0.953E-01    0.191E+01
DAV:  13    -0.937020015712E+03    0.59647E+01   -0.29644E+00  5992   0.358E+00    0.136E+01
DAV:  14    -0.933182286017E+03    0.38377E+01   -0.59265E+00  5640   0.416E+00    0.864E+00
DAV:  15    -0.933551024503E+03   -0.36874E+00   -0.21887E+00  4872   0.141E+00    0.775E+00
DAV:  16    -0.933187204350E+03    0.36382E+00   -0.64509E-02  6160   0.478E-01    0.743E+00
DAV:  17    -0.933196719632E+03   -0.95153E-02   -0.36409E-02  4984   0.268E-01    0.760E+00
DAV:  18    -0.933366430431E+03   -0.16971E+00   -0.34542E-01  5512   0.915E-01    0.898E+00
DAV:  19    -0.932138889471E+03    0.12275E+01   -0.18329E-01  5960   0.107E+00    0.818E+00
DAV:  20    -0.931691724304E+03    0.44717E+00   -0.27967E-01  5664   0.582E-01    0.771E+00
DAV:  21    -0.931661048406E+03    0.30676E-01   -0.68846E-02  5024   0.214E-01    0.757E+00
DAV:  22    -0.931593117891E+03    0.67931E-01   -0.48256E-03  6520   0.104E-01    0.746E+00
DAV:  23    -0.931726783424E+03   -0.13367E+00   -0.11857E-02  5136   0.134E-01    0.730E+00
DAV:  24    -0.930596191271E+03    0.11306E+01   -0.26769E-01  6344   0.126E+00    0.481E+00
DAV:  25    -0.930871856944E+03   -0.27567E+00   -0.16568E-01  4656   0.400E-01    0.541E+00
DAV:  26    -0.930900383998E+03   -0.28527E-01   -0.41110E-02  5176   0.276E-01    0.516E+00
DAV:  27    -0.930592470229E+03    0.30791E+00   -0.26523E-01  7224   0.119E+00    0.732E+00
DAV:  28    -0.930711704900E+03   -0.11923E+00   -0.45703E-01  5424   0.599E-01    0.104E+01
DAV:  29    -0.930638329590E+03    0.73375E-01   -0.39834E-02  4720   0.182E-01    0.106E+01
DAV:  30    -0.930531784011E+03    0.10655E+00   -0.45181E-03  6440   0.816E-02    0.991E+00
DAV:  31    -0.930887816905E+03   -0.35603E+00   -0.75096E-02  7392   0.300E-01    0.125E+01
DAV:  32    -0.930853214947E+03    0.34602E-01   -0.12438E-02  4960   0.838E-02    0.121E+01
DAV:  33    -0.930647439117E+03    0.20578E+00   -0.39004E-02  7024   0.195E-01    0.107E+01
DAV:  34    -0.930800608131E+03   -0.15317E+00   -0.15181E-02  4648   0.159E-01    0.118E+01
DAV:  35    -0.930898503291E+03   -0.97895E-01   -0.12501E-02  5992   0.830E-02    0.125E+01
DAV:  36    -0.930895267791E+03    0.32355E-02   -0.11912E-03  4648   0.334E-02    0.124E+01
DAV:  37    -0.931261071437E+03   -0.36580E+00   -0.53341E-02  7128   0.276E-01    0.150E+01
DAV:  38    -0.930802733649E+03    0.45834E+00   -0.31657E-01  5496   0.227E-01    0.114E+01
DAV:  39    -0.930758886310E+03    0.43847E-01   -0.17105E-02  5024   0.939E-02    0.114E+01
DAV:  40    -0.930709166492E+03    0.49720E-01   -0.33308E-03  6560   0.898E-02    0.112E+01
DAV:  41    -0.930427174200E+03    0.28199E+00   -0.64732E-02  6072   0.229E-01    0.847E+00
DAV:  42    -0.930501319761E+03   -0.74146E-01   -0.20677E-02  4512   0.849E-02    0.923E+00
DAV:  43    -0.930516275331E+03   -0.14956E-01   -0.15653E-02  5472   0.169E-01    0.964E+00
DAV:  44    -0.930447144916E+03    0.69130E-01   -0.97081E-03  5456   0.110E-01    0.908E+00
DAV:  45    -0.930278169449E+03    0.16898E+00   -0.17325E-01  6808   0.388E-01    0.356E+00
DAV:  46    -0.930905147002E+03   -0.62698E+00   -0.73481E-01  6000   0.584E-01    0.118E+01
DAV:  47    -0.930872973914E+03    0.32173E-01   -0.61195E-02  5152   0.193E-01    0.124E+01
DAV:  48    -0.930766101604E+03    0.10687E+00   -0.93231E-03  5016   0.108E-01    0.115E+01
DAV:  49    -0.930452199919E+03    0.31390E+00   -0.92019E-02  5880   0.190E-01    0.835E+00
DAV:  50    -0.930339259855E+03    0.11294E+00   -0.13887E-01  5616   0.212E-01    0.396E+00
DAV:  51    -0.930488861787E+03   -0.14960E+00   -0.51783E-02  4696   0.168E-01    0.678E+00
DAV:  52    -0.930564532410E+03   -0.75671E-01   -0.50309E-02  6520   0.122E-01    0.890E+00
DAV:  53    -0.930395418040E+03    0.16911E+00   -0.87149E-02  5120   0.155E-01    0.533E+00
DAV:  54    -0.930433803764E+03   -0.38386E-01   -0.24546E-02  5496   0.981E-02    0.381E+00
DAV:  55    -0.930475460642E+03   -0.41657E-01   -0.19301E-02  5288   0.130E-01    0.266E+00
DAV:  56    -0.930511998303E+03   -0.36538E-01   -0.76264E-03  4976   0.103E-01    0.258E+00
DAV:  57    -0.930579315502E+03   -0.67317E-01   -0.74689E-02  6832   0.166E-01    0.650E+00
DAV:  58    -0.930492346840E+03    0.86969E-01   -0.21464E-02  4200   0.125E-01    0.501E+00
DAV:  59    -0.930489727741E+03    0.26191E-02   -0.65449E-03  5056   0.103E-01    0.421E+00
DAV:  60    -0.930491540026E+03   -0.18123E-02   -0.90898E-03  5072   0.998E-02
 -----------------------------------------------------------------------------
|                                                                             |
|           W    W    AA    RRRRR   N    N  II  N    N   GGGG   !!!           |
|           W    W   A  A   R    R  NN   N  II  NN   N  G    G  !!!           |
|           W    W  A    A  R    R  N N  N  II  N N  N  G       !!!           |
|           W WW W  AAAAAA  RRRRR   N  N N  II  N  N N  G  GGG   !            |
|           WW  WW  A    A  R   R   N   NN  II  N   NN  G    G                |
|           W    W  A    A  R    R  N    N  II  N    N   GGGG   !!!           |
|                                                                             |
|     The electronic self-consistency was not achieved in the given           |
|     number of steps (NELM). The forces and other quantities evaluated       |
|     might not be reliable so examine the results carefully. If you find     |
|     spurious results, we suggest increasing NELM, if you were close to      |
|     convergence or switching to a different ALGO or adjusting the           |
|     density mixing parameters otherwise.                                    |
|                                                                             |
 -----------------------------------------------------------------------------

   2 F= -.10033235E+04 E0= -.10032858E+04  d E =-.390117E+01
 trial-energy change:   -3.901169  1 .order  -15.940481  -34.250274    2.369312
 step:   0.9353(harm=  0.9353)  dis= 0.49856  next Energy= -1015.439421 (dE=-0.160E+02)
 bond charge predicted
       N       E                     dE             d eps       ncg     rms          rms(c)
DAV:   1    -0.930602543843E+03   -0.11282E+00   -0.16946E+01  4128   0.539E+00    0.624E+00
DAV:   2    -0.933772797594E+03   -0.31703E+01   -0.24077E+01  7152   0.430E+00    0.108E+01
DAV:   3    -0.931311899410E+03    0.24609E+01   -0.21397E+00  5512   0.415E+00    0.755E+00
DAV:   4    -0.930843691109E+03    0.46821E+00   -0.12648E+00  5128   0.222E+00    0.594E+00
DAV:   5    -0.930723805172E+03    0.11989E+00   -0.64762E-01  6016   0.151E+00    0.836E+00
DAV:   6    -0.930539899710E+03    0.18391E+00   -0.66505E-01  4896   0.671E-01    0.198E+00
DAV:   7    -0.930657119803E+03   -0.11722E+00   -0.18229E-01  5760   0.410E-01    0.365E+00
DAV:   8    -0.930685984192E+03   -0.28864E-01   -0.54494E-02  5056   0.336E-01    0.458E+00
DAV:   9    -0.930546268221E+03    0.13972E+00   -0.53032E-02  6256   0.479E-01    0.174E+00
DAV:  10    -0.930594682866E+03   -0.48415E-01   -0.55126E-02  4784   0.202E-01    0.250E+00
DAV:  11    -0.930572197426E+03    0.22485E-01   -0.81893E-02  6056   0.172E-01    0.129E+00
DAV:  12    -0.930586226668E+03   -0.14029E-01   -0.86858E-03  4344   0.104E-01    0.105E+00
DAV:  13    -0.930582744866E+03    0.34818E-02   -0.12075E-03  5824   0.416E-02    0.605E-01
DAV:  14    -0.930584689043E+03   -0.19442E-02   -0.12931E-03  5288   0.348E-02    0.279E-01
DAV:  15    -0.930586849080E+03   -0.21600E-02   -0.17538E-03  5736   0.566E-02    0.621E-01
DAV:  16    -0.930585588692E+03    0.12604E-02   -0.10291E-03  4576   0.386E-02    0.622E-01
DAV:  17    -0.930585316462E+03    0.27223E-03   -0.13696E-04  5400   0.159E-02    0.676E-01
DAV:  18    -0.930584336088E+03    0.98037E-03   -0.14906E-04  4712   0.171E-02    0.483E-01
DAV:  19    -0.930584911284E+03   -0.57520E-03   -0.28020E-04  6016   0.207E-02    0.330E-01
DAV:  20    -0.930585700611E+03   -0.78933E-03   -0.72522E-05  4264   0.988E-03    0.330E-01
DAV:  21    -0.930585647254E+03    0.53357E-04   -0.34044E-04  4040   0.126E-02    0.431E-02
DAV:  22    -0.930586329649E+03   -0.68240E-03   -0.77865E-05  3928   0.116E-02    0.121E-01
DAV:  23    -0.930586321412E+03    0.82372E-05   -0.13598E-04  3368   0.774E-03    0.782E-02
DAV:  24    -0.930586402138E+03   -0.80726E-04   -0.23582E-05  3504   0.666E-03    0.347E-02
DAV:  25    -0.930586424268E+03   -0.22129E-04   -0.37925E-06  2816   0.200E-03    0.248E-02
DAV:  26    -0.930586448391E+03   -0.24123E-04   -0.57663E-06  2688   0.184E-03    0.117E-02
DAV:  27    -0.930586466503E+03   -0.18112E-04   -0.23935E-06  2720   0.157E-03    0.924E-03
DAV:  28    -0.930586477906E+03   -0.11403E-04   -0.91421E-07  2560   0.801E-04    0.835E-03
DAV:  29    -0.930586487445E+03   -0.95397E-05   -0.11387E-06  2624   0.670E-04    0.454E-03
DAV:  30    -0.930586490438E+03   -0.29929E-05   -0.54048E-07  2304   0.640E-04
   3 F= -.10034170E+04 E0= -.10033773E+04  d E =-.399467E+01
 curvature:  -0.47 expect dE=-0.763E+00 dE for cont linesearch -0.328E-01
 ZBRENT: interpolating
 opt :   0.8948  next Energy= -1003.448319 (dE=-0.403E+01)
 bond charge predicted
       N       E                     dE             d eps       ncg     rms          rms(c)
DAV:   1    -0.930637346100E+03   -0.50859E-01   -0.71173E+00  4144   0.345E+00    0.270E+00
DAV:   2    -0.931671591887E+03   -0.10342E+01   -0.68254E+00  6280   0.189E+00    0.810E+00
DAV:   3    -0.930644795713E+03    0.10268E+01   -0.43802E-01  5432   0.186E+00    0.349E+00
DAV:   4    -0.930650559606E+03   -0.57639E-02   -0.27779E-01  4944   0.101E+00    0.192E+00
DAV:   5    -0.930653826258E+03   -0.32667E-02   -0.91410E-02  5448   0.563E-01    0.336E+00
DAV:   6    -0.930621079115E+03    0.32747E-01   -0.67262E-02  4896   0.228E-01    0.473E-01
DAV:   7    -0.930656441190E+03   -0.35362E-01   -0.37793E-02  5848   0.162E-01    0.204E+00
DAV:   8    -0.930633822230E+03    0.22619E-01   -0.13075E-02  4944   0.148E-01    0.254E-01
DAV:   9    -0.930647494667E+03   -0.13672E-01   -0.96621E-03  5992   0.770E-02    0.117E+00
DAV:  10    -0.930640324024E+03    0.71706E-02   -0.47510E-03  4584   0.608E-02    0.214E-01
DAV:  11    -0.930644434924E+03   -0.41109E-02   -0.13237E-03  5048   0.360E-02    0.194E-01
DAV:  12    -0.930644925174E+03   -0.49025E-03   -0.16803E-04  4472   0.191E-02    0.178E-01
DAV:  13    -0.930644912723E+03    0.12452E-04   -0.35131E-05  4480   0.657E-03    0.238E-01
DAV:  14    -0.930644659756E+03    0.25297E-03   -0.14396E-04  4184   0.127E-02    0.526E-02
DAV:  15    -0.930644879318E+03   -0.21956E-03   -0.53890E-05  3984   0.774E-03    0.154E-02
DAV:  16    -0.930644913446E+03   -0.34128E-04   -0.61413E-06  2976   0.356E-03    0.130E-02
DAV:  17    -0.930644920103E+03   -0.66575E-05   -0.20184E-06  2264   0.192E-03    0.137E-02
DAV:  18    -0.930644930082E+03   -0.99783E-05   -0.11396E-06  2456   0.148E-03    0.155E-02
DAV:  19    -0.930644934217E+03   -0.41353E-05   -0.10093E-06  2280   0.127E-03
   4 F= -.10034744E+04 E0= -.10034352E+04  d E =-.405206E+01
 curvature:  -0.45 expect dE=-0.632E+00 dE for cont linesearch -0.217E-01
 ZBRENT: interpolating
 opt :   0.7011  next Energy= -1003.603797 (dE=-0.418E+01)
 bond charge predicted
       N       E                     dE             d eps       ncg     rms          rms(c)
DAV:   1    -0.930419647413E+03    0.22528E+00   -0.16106E+02  4104   0.168E+01    0.978E+00
DAV:   2    -0.934105022468E+03   -0.36854E+01   -0.11685E+01  5400   0.629E+00    0.123E+01
DAV:   3    -0.931645889991E+03    0.24591E+01   -0.36621E+00  5248   0.589E+00    0.376E+00
DAV:   4    -0.932268773251E+03   -0.62288E+00   -0.20411E+00  5080   0.478E+00    0.344E+00
DAV:   5    -0.930883309332E+03    0.13855E+01   -0.57307E-01  5008   0.284E+00    0.419E+00
DAV:   6    -0.930760292173E+03    0.12302E+00   -0.45836E-01  5504   0.961E-01    0.179E+00
DAV:   7    -0.930840513455E+03   -0.80221E-01   -0.14518E-01  5448   0.461E-01    0.378E+00
DAV:   8    -0.930803421601E+03    0.37092E-01   -0.14626E-01  6608   0.576E-01    0.278E+00
DAV:   9    -0.930772894706E+03    0.30527E-01   -0.69398E-02  5240   0.384E-01    0.455E-01
DAV:  10    -0.930786745504E+03   -0.13851E-01   -0.14937E-02  4968   0.159E-01    0.319E-01
DAV:  11    -0.930787958450E+03   -0.12129E-02   -0.31121E-03  5416   0.573E-02    0.507E-01
DAV:  12    -0.930787079639E+03    0.87881E-03   -0.20465E-03  6928   0.679E-02    0.309E-01
DAV:  13    -0.930787791068E+03   -0.71143E-03   -0.83095E-04  4912   0.368E-02    0.152E-01
DAV:  14    -0.930788115229E+03   -0.32416E-03   -0.33195E-04  5368   0.284E-02    0.204E-01
DAV:  15    -0.930787885246E+03    0.22998E-03   -0.36261E-04  5936   0.309E-02    0.757E-02
DAV:  16    -0.930788129164E+03   -0.24392E-03   -0.23652E-04  4392   0.147E-02    0.103E-01
DAV:  17    -0.930788222612E+03   -0.93448E-04   -0.18509E-04  4416   0.170E-02    0.123E-01
DAV:  18    -0.930788266609E+03   -0.43998E-04   -0.73147E-05  3608   0.112E-02    0.244E-02
DAV:  19    -0.930788426708E+03   -0.16010E-03   -0.33444E-05  3856   0.600E-03    0.390E-02
DAV:  20    -0.930788515240E+03   -0.88533E-04   -0.11087E-05  3504   0.496E-03    0.285E-02
DAV:  21    -0.930788560211E+03   -0.44971E-04   -0.32856E-06  2992   0.266E-03    0.165E-02
DAV:  22    -0.930788609399E+03   -0.49187E-04   -0.62882E-06  3024   0.244E-03    0.178E-02
DAV:  23    -0.930788632724E+03   -0.23325E-04   -0.21836E-06  2488   0.209E-03    0.732E-03
DAV:  24    -0.930788652407E+03   -0.19683E-04   -0.76218E-07  2544   0.888E-04    0.804E-03
DAV:  25    -0.930788669771E+03   -0.17365E-04   -0.91507E-07  2616   0.709E-04    0.362E-03
DAV:  26    -0.930788675586E+03   -0.58149E-05   -0.55469E-07  2288   0.831E-04    0.627E-03
DAV:  27    -0.930788677250E+03   -0.16635E-05   -0.22408E-07  2248   0.691E-04
   5 F= -.10036106E+04 E0= -.10035746E+04  d E =-.418830E+01
 curvature:  -2.67 expect dE=-0.188E+01 dE for cont linesearch -0.294E-02
 ZBRENT: bisectioning
 opt :   0.3506  next Energy= -1003.331278 (dE=-0.391E+01)
 bond charge predicted
       N       E                     dE             d eps       ncg     rms          rms(c)
DAV:   1    -0.927975776892E+03    0.28129E+01   -0.51714E+02  4096   0.320E+01    0.335E+01
DAV:   2    -0.930863032459E+03   -0.28873E+01   -0.39625E+01  4904   0.751E+00    0.758E+00
DAV:   3    -0.934209844299E+03   -0.33468E+01   -0.46344E+00  5288   0.588E+00    0.626E+00
DAV:   4    -0.932542804287E+03    0.16670E+01   -0.20001E+00  5464   0.619E+00    0.456E+00
DAV:   5    -0.930919318114E+03    0.16235E+01   -0.63164E-01  5408   0.330E+00    0.213E+00
DAV:   6    -0.931153764783E+03   -0.23445E+00   -0.16789E+00  5240   0.197E+00    0.160E+00
DAV:   7    -0.930875144125E+03    0.27862E+00   -0.61617E-01  5088   0.128E+00    0.875E-01
DAV:   8    -0.930873664012E+03    0.14801E-02   -0.81416E-02  5448   0.452E-01    0.508E-01
DAV:   9    -0.930877567132E+03   -0.39031E-02   -0.84544E-02  6176   0.370E-01    0.497E-01
DAV:  10    -0.930874862188E+03    0.27049E-02   -0.14712E-02  5016   0.178E-01    0.493E-01
DAV:  11    -0.930875003968E+03   -0.14178E-03   -0.30687E-03  5536   0.550E-02    0.410E-01
DAV:  12    -0.930875136881E+03   -0.13291E-03   -0.46861E-04  5888   0.443E-02    0.358E-01
DAV:  13    -0.930875090406E+03    0.46476E-04   -0.23727E-03  5392   0.817E-02    0.251E-01
DAV:  14    -0.930875134497E+03   -0.44092E-04   -0.27205E-03  5504   0.564E-02    0.223E-01
DAV:  15    -0.930875151271E+03   -0.16773E-04   -0.74469E-04  5408   0.269E-02    0.154E-01
DAV:  16    -0.930875191342E+03   -0.40071E-04   -0.44282E-05  4864   0.805E-03    0.132E-01
DAV:  17    -0.930875681121E+03   -0.48978E-03   -0.13748E-04  5824   0.245E-02    0.510E-02
DAV:  18    -0.930876146341E+03   -0.46522E-03   -0.58972E-04  6832   0.352E-02    0.631E-02
DAV:  19    -0.930876232591E+03   -0.86249E-04   -0.20022E-04  5040   0.128E-02    0.831E-02
DAV:  20    -0.930876302547E+03   -0.69956E-04   -0.37937E-05  4200   0.111E-02    0.479E-02
DAV:  21    -0.930876554903E+03   -0.25236E-03   -0.14474E-04  5344   0.146E-02    0.100E-02
DAV:  22    -0.930876600400E+03   -0.45497E-04   -0.34494E-05  4328   0.658E-03    0.103E-02
DAV:  23    -0.930876711588E+03   -0.11119E-03   -0.12882E-05  3472   0.461E-03    0.122E-02
DAV:  24    -0.930876774256E+03   -0.62668E-04   -0.46847E-06  3248   0.314E-03    0.945E-03
DAV:  25    -0.930876808166E+03   -0.33910E-04   -0.44561E-06  3000   0.317E-03    0.350E-03
DAV:  26    -0.930876826785E+03   -0.18619E-04   -0.28430E-06  2992   0.163E-03    0.230E-03
DAV:  27    -0.930876849194E+03   -0.22409E-04   -0.10448E-06  2736   0.125E-03    0.210E-03
DAV:  28    -0.930876860061E+03   -0.10867E-04   -0.57525E-07  2560   0.856E-04    0.164E-03
DAV:  29    -0.930876863193E+03   -0.31325E-05   -0.15090E-07  2368   0.536E-04
   6 F= -.10036801E+04 E0= -.10036474E+04  d E =-.425784E+01
 curvature: 253.55 expect dE= 0.804E+02 dE for cont linesearch  0.757E+00
 ZBRENT: interpolating
 opt :   0.5686  next Energy= -1003.623463 (dE=-0.420E+01)
 bond charge predicted
       N       E                     dE             d eps       ncg     rms          rms(c)
DAV:   1    -0.929679034282E+03    0.11978E+01   -0.20117E+02  4216   0.174E+01    0.130E+01
DAV:   2    -0.930907144037E+03   -0.12281E+01   -0.12296E+01  4792   0.375E+00    0.910E+00
DAV:   3    -0.933615889814E+03   -0.27087E+01   -0.14830E+00  5744   0.457E+00    0.110E+01
DAV:   4    -0.933600027102E+03    0.15863E-01   -0.22373E+00  6704   0.719E+00    0.802E+00
DAV:   5    -0.931590790430E+03    0.20092E+01   -0.30713E+00  6144   0.460E+00    0.804E+00
DAV:   6    -0.930867204954E+03    0.72359E+00   -0.61958E-01  5200   0.188E+00    0.491E+00
DAV:   7    -0.930783611709E+03    0.83593E-01   -0.60418E-01  5800   0.125E+00    0.157E+00
DAV:   8    -0.930802621064E+03   -0.19009E-01   -0.31454E-01  4888   0.729E-01    0.134E+00
DAV:   9    -0.930800550265E+03    0.20708E-02   -0.67801E-02  5120   0.528E-01    0.122E+00
DAV:  10    -0.930799488655E+03    0.10616E-02   -0.58382E-02  5512   0.318E-01    0.113E+00
DAV:  11    -0.930802307705E+03   -0.28191E-02   -0.73751E-03  4928   0.119E-01    0.106E+00
DAV:  12    -0.930798503529E+03    0.38042E-02   -0.45820E-03  6472   0.160E-01    0.615E-01
DAV:  13    -0.930798910517E+03   -0.40699E-03   -0.18949E-02  5680   0.199E-01    0.323E-01
DAV:  14    -0.930800136888E+03   -0.12264E-02   -0.68034E-03  4840   0.807E-02    0.349E-01
DAV:  15    -0.930799989413E+03    0.14748E-03   -0.19373E-04  6464   0.149E-02    0.380E-01
DAV:  16    -0.930800050963E+03   -0.61551E-04   -0.85670E-05  4960   0.217E-02    0.302E-01
DAV:  17    -0.930800388959E+03   -0.33800E-03   -0.13464E-03  6112   0.721E-02    0.167E-01
DAV:  18    -0.930800731493E+03   -0.34253E-03   -0.12297E-03  4640   0.277E-02    0.210E-01
DAV:  19    -0.930800674204E+03    0.57290E-04   -0.57170E-05  5088   0.110E-02    0.185E-01
DAV:  20    -0.930800600729E+03    0.73475E-04   -0.13023E-04  5760   0.154E-02    0.120E-01
DAV:  21    -0.930800610800E+03   -0.10071E-04   -0.25473E-05  4312   0.514E-03    0.100E-01
DAV:  22    -0.930800629289E+03   -0.18489E-04   -0.35638E-05  4344   0.101E-02    0.594E-02
DAV:  23    -0.930800717334E+03   -0.88045E-04   -0.72523E-05  4800   0.876E-03    0.224E-02
DAV:  24    -0.930800764661E+03   -0.47327E-04   -0.24586E-05  4360   0.676E-03    0.162E-02
DAV:  25    -0.930800784748E+03   -0.20087E-04   -0.66485E-06  3224   0.283E-03    0.180E-02
DAV:  26    -0.930800812197E+03   -0.27450E-04   -0.38695E-06  3136   0.202E-03    0.885E-03
DAV:  27    -0.930800827091E+03   -0.14894E-04   -0.30882E-06  3080   0.173E-03    0.217E-03
DAV:  28    -0.930800831703E+03   -0.46118E-05   -0.61897E-07  2328   0.101E-03
   7 F= -.10036177E+04 E0= -.10035842E+04  d E =-.419539E+01
 curvature:  -4.31 expect dE=-0.202E+01 dE for cont linesearch -0.620E-03
 trial: gam= 0.01575 g(F)=  0.469E+00 g(S)=  0.000E+00 ort =-0.702E-01 (trialstep = 0.914E+00)
 search vector abs. value=  0.476E+00
 bond charge predicted
       N       E                     dE             d eps       ncg     rms          rms(c)
DAV:   1    -0.931003707016E+03   -0.20288E+00   -0.13825E+01  4160   0.485E+00    0.167E+00
DAV:   2    -0.931099821809E+03   -0.96115E-01   -0.10023E+00  4608   0.112E+00    0.154E+00
DAV:   3    -0.931117986111E+03   -0.18164E-01   -0.88167E-02  6512   0.601E-01    0.255E+00
DAV:   4    -0.931086017287E+03    0.31969E-01   -0.16719E-02  5336   0.406E-01    0.101E+00
DAV:   5    -0.931097773081E+03   -0.11756E-01   -0.16810E-02  4936   0.365E-01    0.865E-01
DAV:   6    -0.931087933866E+03    0.98392E-02   -0.69512E-03  5544   0.287E-01    0.419E-01
DAV:   7    -0.931090839134E+03   -0.29053E-02   -0.11706E-02  4928   0.165E-01    0.300E-01
DAV:   8    -0.931089099143E+03    0.17400E-02   -0.46233E-03  5216   0.122E-01    0.216E-01
DAV:   9    -0.931089175410E+03   -0.76266E-04   -0.13013E-03  4720   0.474E-02    0.526E-02
DAV:  10    -0.931089245274E+03   -0.69864E-04   -0.23501E-04  5432   0.253E-02    0.906E-02
DAV:  11    -0.931089193991E+03    0.51283E-04   -0.86897E-05  5120   0.210E-02    0.182E-02
DAV:  12    -0.931089215259E+03   -0.21268E-04   -0.75926E-05  4960   0.122E-02    0.128E-02
DAV:  13    -0.931089216626E+03   -0.13675E-05   -0.10405E-05  3592   0.551E-03
   8 F= -.10039190E+04 E0= -.10038856E+04  d E =-.301310E+00
 trial-energy change:   -0.301310  1 .order   -0.310872   -0.427831   -0.193912
 step:   1.6712(harm=  1.6712)  dis= 0.05444  next Energy= -1004.008923 (dE=-0.391E+00)
 bond charge predicted
       N       E                     dE             d eps       ncg     rms          rms(c)
DAV:   1    -0.931125681605E+03   -0.36466E-01   -0.93194E+00  4160   0.402E+00    0.143E+00
DAV:   2    -0.931186543441E+03   -0.60862E-01   -0.67175E-01  4688   0.862E-01    0.759E-01
DAV:   3    -0.931192840946E+03   -0.62975E-02   -0.29981E-02  6264   0.331E-01    0.161E+00
DAV:   4    -0.931180570085E+03    0.12271E-01   -0.92473E-03  4864   0.176E-01    0.628E-01
DAV:   5    -0.931198648287E+03   -0.18078E-01   -0.98884E-03  5064   0.306E-01    0.492E-01
DAV:   6    -0.931184195478E+03    0.14453E-01   -0.32804E-03  5256   0.301E-01    0.277E-01
DAV:   7    -0.931184651933E+03   -0.45645E-03   -0.38191E-03  5384   0.108E-01    0.150E-01
DAV:   8    -0.931184386732E+03    0.26520E-03   -0.24429E-03  5104   0.772E-02    0.159E-01
DAV:   9    -0.931184298802E+03    0.87930E-04   -0.48129E-04  5120   0.423E-02    0.766E-02
DAV:  10    -0.931184309193E+03   -0.10391E-04   -0.17130E-04  5216   0.195E-02    0.509E-02
DAV:  11    -0.931184298065E+03    0.11128E-04   -0.64762E-05  4984   0.150E-02    0.117E-02
DAV:  12    -0.931184306676E+03   -0.86110E-05   -0.41539E-05  4632   0.782E-03    0.125E-02
DAV:  13    -0.931184306771E+03   -0.95606E-07   -0.47507E-06  2720   0.387E-03
   9 F= -.10040248E+04 E0= -.10039914E+04  d E =-.407108E+00
 curvature:  -0.85 expect dE=-0.114E+00 dE for cont linesearch -0.104E-01
 ZBRENT: increasing intervall
 opt :   3.1861  next Energy= -1003.934253 (dE=-0.317E+00)
 bond charge predicted
       N       E                     dE             d eps       ncg     rms          rms(c)
DAV:   1    -0.930917994530E+03    0.26631E+00   -0.36736E+01  4184   0.808E+00    0.295E+00
DAV:   2    -0.931149180553E+03   -0.23119E+00   -0.26071E+00  4688   0.181E+00    0.134E+00
DAV:   3    -0.931164210096E+03   -0.15030E-01   -0.50309E-02  5416   0.570E-01    0.169E+00
DAV:   4    -0.931144673197E+03    0.19537E-01   -0.26228E-02  4936   0.411E-01    0.110E+00
DAV:   5    -0.931164733338E+03   -0.20060E-01   -0.79289E-03  5888   0.428E-01    0.893E-01
DAV:   6    -0.931147355089E+03    0.17378E-01   -0.12171E-02  6160   0.404E-01    0.555E-01
DAV:   7    -0.931149871571E+03   -0.25165E-02   -0.19120E-02  5048   0.233E-01    0.231E-01
DAV:   8    -0.931147686431E+03    0.21851E-02   -0.95870E-03  4976   0.152E-01    0.163E-01
DAV:   9    -0.931147619976E+03    0.66455E-04   -0.15107E-03  4944   0.518E-02    0.123E-01
DAV:  10    -0.931147555234E+03    0.64742E-04   -0.51667E-04  5120   0.354E-02    0.262E-02
DAV:  11    -0.931147580991E+03   -0.25758E-04   -0.35341E-04  4760   0.239E-02    0.210E-02
DAV:  12    -0.931147586810E+03   -0.58181E-05   -0.42063E-05  4952   0.900E-03    0.186E-02
DAV:  13    -0.931147591071E+03   -0.42614E-05   -0.42673E-06  2888   0.379E-03
  10 F= -.10040095E+04 E0= -.10039760E+04  d E =-.391793E+00
 curvature:   7.41 expect dE= 0.185E+01 dE for cont linesearch  0.915E-01
 ZBRENT: bracketing found
 ZBRENT: interpolating
 opt :   2.4266  next Energy= -1004.053578 (dE=-0.436E+00)
 bond charge predicted
       N       E                     dE             d eps       ncg     rms          rms(c)
DAV:   1    -0.931138372333E+03    0.92145E-02   -0.91050E+00  4144   0.409E+00    0.158E+00
DAV:   2    -0.931200476818E+03   -0.62104E-01   -0.66072E-01  4864   0.841E-01    0.135E+00
DAV:   3    -0.931221531442E+03   -0.21055E-01   -0.48515E-02  5936   0.609E-01    0.181E+00
DAV:   4    -0.931204890795E+03    0.16641E-01   -0.22671E-02  5760   0.599E-01    0.609E-01
DAV:   5    -0.931196766612E+03    0.81242E-02   -0.15335E-02  5080   0.405E-01    0.539E-01
DAV:   6    -0.931193751930E+03    0.30147E-02   -0.37704E-03  4768   0.156E-01    0.252E-01
DAV:   7    -0.931194443399E+03   -0.69147E-03   -0.39430E-03  5112   0.846E-02    0.121E-01
DAV:   8    -0.931194670107E+03   -0.22671E-03   -0.16734E-03  5048   0.686E-02    0.115E-01
DAV:   9    -0.931194540026E+03    0.13008E-03   -0.90026E-04  5160   0.521E-02    0.154E-01
DAV:  10    -0.931194411378E+03    0.12865E-03   -0.25531E-04  5408   0.341E-02    0.342E-02
DAV:  11    -0.931194475062E+03   -0.63684E-04   -0.14938E-04  4912   0.153E-02    0.391E-02
DAV:  12    -0.931194466365E+03    0.86972E-05   -0.19951E-05  3960   0.881E-03    0.177E-02
DAV:  13    -0.931194469533E+03   -0.31673E-05   -0.20356E-05  3640   0.471E-03
  11 F= -.10040456E+04 E0= -.10040122E+04  d E =-.427945E+00
 curvature:  -2.33 expect dE=-0.435E+00 dE for cont linesearch -0.106E-02
 trial: gam= 0.44603 g(F)=  0.187E+00 g(S)=  0.000E+00 ort =-0.147E-01 (trialstep = 0.122E+01)
 search vector abs. value=  0.268E+00
 bond charge predicted
       N       E                     dE             d eps       ncg     rms          rms(c)
DAV:   1    -0.931316664393E+03   -0.12220E+00   -0.21437E+01  4120   0.597E+00    0.300E+00
DAV:   2    -0.931623252149E+03   -0.30659E+00   -0.12612E+00  5440   0.159E+00    0.551E+00
DAV:   3    -0.931414177772E+03    0.20907E+00   -0.27277E-01  5192   0.151E+00    0.111E+00
DAV:   4    -0.931561122373E+03   -0.14694E+00   -0.13105E-01  4888   0.137E+00    0.145E+00
DAV:   5    -0.931388630610E+03    0.17249E+00   -0.35757E-02  5152   0.920E-01    0.933E-01
DAV:   6    -0.931394243490E+03   -0.56129E-02   -0.32574E-02  5352   0.305E-01    0.747E-01
DAV:   7    -0.931393323969E+03    0.91952E-03   -0.16484E-02  5288   0.208E-01    0.416E-01
DAV:   8    -0.931392487731E+03    0.83624E-03   -0.63507E-03  5400   0.151E-01    0.249E-01
DAV:   9    -0.931394248745E+03   -0.17610E-02   -0.43970E-03  6032   0.132E-01    0.459E-01
DAV:  10    -0.931392875154E+03    0.13736E-02   -0.18417E-03  4720   0.930E-02    0.869E-02
DAV:  11    -0.931393323377E+03   -0.44822E-03   -0.91410E-04  5144   0.457E-02    0.146E-01
DAV:  12    -0.931393206230E+03    0.11715E-03   -0.14704E-04  4760   0.225E-02    0.507E-02
DAV:  13    -0.931393251421E+03   -0.45190E-04   -0.56064E-05  4408   0.999E-03    0.262E-02
DAV:  14    -0.931393260790E+03   -0.93696E-05   -0.12410E-05  3856   0.588E-03    0.942E-03
DAV:  15    -0.931393267180E+03   -0.63898E-05   -0.37449E-06  2824   0.328E-03    0.333E-03
DAV:  16    -0.931393270911E+03   -0.37307E-05   -0.18300E-06  2480   0.213E-03
  12 F= -.10042668E+04 E0= -.10042327E+04  d E =-.221161E+00
 ZBRENT: can't locate minimum, use default step
 trial-energy change:   -0.221161  1 .order   -0.221260   -0.219060   -0.223460
 step:   4.8652(harm=  4.8652)  dis= 0.18738  next Energy= -1004.957067 (dE=-0.911E+00)
 bond charge predicted
       N       E                     dE             d eps       ncg     rms          rms(c)
DAV:   1    -0.931198821200E+03    0.19445E+00   -0.19603E+02  4144   0.188E+01    0.113E+01
DAV:   2    -0.934191529103E+03   -0.29927E+01   -0.97426E+00  5464   0.533E+00    0.176E+01
DAV:   3    -0.933598410029E+03    0.59312E+00   -0.86151E+00  5872   0.533E+00    0.826E+00
DAV:   4    -0.934761796017E+03   -0.11634E+01   -0.16708E+00  4960   0.563E+00    0.669E+00
DAV:   5    -0.932050931514E+03    0.27109E+01   -0.15030E+00  5272   0.371E+00    0.431E+00
DAV:   6    -0.931986053623E+03    0.64878E-01   -0.69256E-01  5176   0.131E+00    0.348E+00
DAV:   7    -0.932017306330E+03   -0.31253E-01   -0.32034E-01  5112   0.679E-01    0.271E+00
DAV:   8    -0.931989986495E+03    0.27320E-01   -0.11585E-01  4880   0.526E-01    0.205E+00
DAV:   9    -0.932018027396E+03   -0.28041E-01   -0.49820E-02  6784   0.475E-01    0.207E+00
DAV:  10    -0.932016276613E+03    0.17508E-02   -0.83630E-02  5208   0.394E-01    0.141E+00
DAV:  11    -0.932008109058E+03    0.81676E-02   -0.37434E-02  5464   0.269E-01    0.121E+00
DAV:  12    -0.932010823102E+03   -0.27140E-02   -0.82819E-03  4688   0.101E-01    0.119E+00
DAV:  13    -0.932006464677E+03    0.43584E-02   -0.29755E-03  6104   0.137E-01    0.897E-01
DAV:  14    -0.932001155577E+03    0.53091E-02   -0.29192E-02  6432   0.312E-01    0.275E-01
DAV:  15    -0.932003324716E+03   -0.21691E-02   -0.20150E-02  4360   0.138E-01    0.227E-01
DAV:  16    -0.932003060129E+03    0.26459E-03   -0.59257E-04  5816   0.320E-02    0.118E-01
DAV:  17    -0.932003355814E+03   -0.29568E-03   -0.11432E-04  4712   0.187E-02    0.900E-02
DAV:  18    -0.932003466453E+03   -0.11064E-03   -0.10503E-04  5168   0.134E-02    0.387E-02
DAV:  19    -0.932003504559E+03   -0.38106E-04   -0.39591E-05  4312   0.640E-03    0.316E-02
DAV:  20    -0.932003522231E+03   -0.17672E-04   -0.95515E-06  3216   0.851E-03    0.334E-02
DAV:  21    -0.932003537383E+03   -0.15152E-04   -0.18707E-05  4024   0.427E-03    0.328E-02
DAV:  22    -0.932003540777E+03   -0.33942E-05   -0.36048E-06  2816   0.568E-03
  13 F= -.10049445E+04 E0= -.10049075E+04  d E =-.898848E+00
 curvature:  -5.48 expect dE=-0.232E+01 dE for cont linesearch -0.663E+00
 ZBRENT: increasing intervall
 opt :  12.1630  next Energy= -1006.232101 (dE=-0.219E+01)
 bond charge predicted
       N       E                     dE             d eps       ncg     rms          rms(c)
DAV:   1    -0.926725529871E+03    0.52780E+01   -0.77359E+02  4296   0.403E+01    0.347E+01
DAV:   2    -0.932447673281E+03   -0.57221E+01   -0.64582E+01  4728   0.812E+00    0.152E+01
DAV:   3    -0.934214609061E+03   -0.17669E+01   -0.47695E+00  5248   0.544E+00    0.124E+01
DAV:   4    -0.932780796640E+03    0.14338E+01   -0.18314E+00  4896   0.484E+00    0.107E+01
DAV:   5    -0.932219642409E+03    0.56115E+00   -0.12122E+00  6120   0.283E+00    0.954E+00
DAV:   6    -0.932118442371E+03    0.10120E+00   -0.44452E-01  4648   0.106E+00    0.676E+00
DAV:   7    -0.932063424932E+03    0.55017E-01   -0.35469E-01  5048   0.992E-01    0.187E+00
DAV:   8    -0.932074130790E+03   -0.10706E-01   -0.18140E-01  4624   0.524E-01    0.112E+00
DAV:   9    -0.932072070227E+03    0.20606E-02   -0.15526E-02  4880   0.221E-01    0.834E-01
DAV:  10    -0.932080324413E+03   -0.82542E-02   -0.14181E-02  5064   0.232E-01    0.635E-01
DAV:  11    -0.932072953200E+03    0.73712E-02   -0.11773E-02  5056   0.209E-01    0.186E-01
DAV:  12    -0.932073681402E+03   -0.72820E-03   -0.47265E-03  5392   0.103E-01    0.102E-01
DAV:  13    -0.932074124572E+03   -0.44317E-03   -0.85896E-04  5128   0.412E-02    0.127E-01
DAV:  14    -0.932074088451E+03    0.36122E-04   -0.16466E-04  5680   0.337E-02    0.483E-02
DAV:  15    -0.932074263616E+03   -0.17517E-03   -0.24591E-04  4608   0.181E-02    0.251E-02
DAV:  16    -0.932074358416E+03   -0.94800E-04   -0.30611E-05  4496   0.920E-03    0.150E-02
DAV:  17    -0.932074389685E+03   -0.31269E-04   -0.11564E-05  3448   0.482E-03    0.125E-02
DAV:  18    -0.932074496420E+03   -0.10673E-03   -0.13439E-05  3216   0.585E-03    0.112E-02
DAV:  19    -0.932074592314E+03   -0.95895E-04   -0.18050E-05  3560   0.394E-03    0.911E-03
DAV:  20    -0.932074621208E+03   -0.28894E-04   -0.50324E-06  3072   0.286E-03    0.611E-03
DAV:  21    -0.932074650092E+03   -0.28883E-04   -0.36077E-06  2936   0.258E-03    0.512E-03
DAV:  22    -0.932074695708E+03   -0.45616E-04   -0.69959E-06  3112   0.240E-03    0.776E-03
DAV:  23    -0.932074703499E+03   -0.77914E-05   -0.97466E-07  2504   0.141E-03    0.666E-03
DAV:  24    -0.932074709795E+03   -0.62959E-05   -0.75886E-07  2448   0.134E-03    0.341E-03
DAV:  25    -0.932074718644E+03   -0.88487E-05   -0.25016E-06  2776   0.169E-03    0.287E-03
DAV:  26    -0.932074721460E+03   -0.28165E-05   -0.44182E-07  2304   0.132E-03
  14 F= -.10051519E+04 E0= -.10051068E+04  d E =-.110632E+01
 curvature: -10.65 expect dE=-0.207E+02 dE for cont linesearch -0.450E+01
 ZBRENT: bracketing found
 ZBRENT: interpolating
 opt :   7.4081  next Energy= -1005.173438 (dE=-0.113E+01)
 bond charge predicted
       N       E                     dE             d eps       ncg     rms          rms(c)
DAV:   1    -0.931774987671E+03    0.29973E+00   -0.33651E+02  4152   0.264E+01    0.175E+01
DAV:   2    -0.939864362898E+03   -0.80894E+01   -0.42103E+01  6040   0.122E+01    0.148E+01
DAV:   3    -0.940632720538E+03   -0.76836E+00   -0.14195E+01  5016   0.112E+01    0.136E+01
DAV:   4    -0.933670437217E+03    0.69623E+01   -0.77132E+00  5320   0.659E+00    0.984E+00
DAV:   5    -0.932230857799E+03    0.14396E+01   -0.27510E+00  6040   0.452E+00    0.422E+00
DAV:   6    -0.932331366043E+03   -0.10051E+00   -0.29543E+00  4696   0.185E+00    0.269E+00
DAV:   7    -0.932403517410E+03   -0.72151E-01   -0.26774E-01  5312   0.767E-01    0.338E+00
DAV:   8    -0.932369572550E+03    0.33945E-01   -0.56396E-02  5360   0.581E-01    0.249E+00
DAV:   9    -0.932385554981E+03   -0.15982E-01   -0.95398E-02  5592   0.576E-01    0.178E+00
DAV:  10    -0.932412856499E+03   -0.27302E-01   -0.86610E-02  5640   0.528E-01    0.314E+00
DAV:  11    -0.932352169398E+03    0.60687E-01   -0.35669E-02  4816   0.284E-01    0.218E+00
DAV:  12    -0.932354234094E+03   -0.20647E-02   -0.13182E-02  5712   0.181E-01    0.208E+00
DAV:  13    -0.932347960936E+03    0.62732E-02   -0.44901E-03  5248   0.878E-02    0.147E+00
DAV:  14    -0.932348680970E+03   -0.72003E-03   -0.12164E-02  7072   0.156E-01    0.347E-01
DAV:  15    -0.932363100816E+03   -0.14420E-01   -0.57382E-03  4400   0.105E-01    0.292E-01
DAV:  16    -0.932364147340E+03   -0.10465E-02   -0.69772E-04  5240   0.378E-02    0.338E-01
DAV:  17    -0.932363815411E+03    0.33193E-03   -0.98218E-04  4608   0.390E-02    0.240E-01
DAV:  18    -0.932364320726E+03   -0.50531E-03   -0.10325E-03  5240   0.429E-02    0.255E-01
DAV:  19    -0.932364053299E+03    0.26743E-03   -0.39787E-04  5648   0.361E-02    0.539E-02
DAV:  20    -0.932364342481E+03   -0.28918E-03   -0.34614E-04  4328   0.186E-02    0.272E-02
DAV:  21    -0.932364365165E+03   -0.22683E-04   -0.23612E-05  4256   0.895E-03    0.216E-02
DAV:  22    -0.932364394080E+03   -0.28916E-04   -0.25238E-05  4032   0.551E-03    0.387E-02
DAV:  23    -0.932364396585E+03   -0.25045E-05   -0.50697E-06  2840   0.495E-03
  15 F= -.10053528E+04 E0= -.10053131E+04  d E =-.130715E+01
 curvature:  -0.54 expect dE=-0.272E+00 dE for cont linesearch -0.342E-01
 ZBRENT: bisectioning
 opt :   9.7855  next Energy= -1005.606684 (dE=-0.156E+01)
 bond charge predicted
       N       E                     dE             d eps       ncg     rms          rms(c)
DAV:   1    -0.932226450949E+03    0.13794E+00   -0.84906E+01  4168   0.131E+01    0.752E+00
DAV:   2    -0.933615255600E+03   -0.13888E+01   -0.41268E+00  5544   0.404E+00    0.110E+01
DAV:   3    -0.933275501413E+03    0.33975E+00   -0.25124E+00  5560   0.414E+00    0.501E+00
DAV:   4    -0.933707491866E+03   -0.43199E+00   -0.90468E-01  5000   0.392E+00    0.463E+00
DAV:   5    -0.932484085706E+03    0.12234E+01   -0.57402E-01  5096   0.234E+00    0.272E+00
DAV:   6    -0.932483624051E+03    0.46165E-03   -0.29241E-01  5072   0.715E-01    0.186E+00
DAV:   7    -0.932495072951E+03   -0.11449E-01   -0.11207E-01  5968   0.570E-01    0.195E+00
DAV:   8    -0.932477957934E+03    0.17115E-01   -0.57697E-02  4976   0.366E-01    0.943E-01
DAV:   9    -0.932482916631E+03   -0.49587E-02   -0.11701E-02  5584   0.141E-01    0.649E-01
DAV:  10    -0.932489539563E+03   -0.66229E-02   -0.11567E-02  5808   0.226E-01    0.917E-01
DAV:  11    -0.932482741964E+03    0.67976E-02   -0.10093E-02  5648   0.174E-01    0.328E-01
DAV:  12    -0.932483574567E+03   -0.83260E-03   -0.27163E-03  4960   0.681E-02    0.205E-01
DAV:  13    -0.932483385644E+03    0.18892E-03   -0.14129E-03  5992   0.684E-02    0.137E-01
DAV:  14    -0.932483487076E+03   -0.10143E-03   -0.14357E-03  5096   0.399E-02    0.836E-02
DAV:  15    -0.932483464059E+03    0.23017E-04   -0.10910E-04  4624   0.150E-02    0.583E-02
DAV:  16    -0.932483474378E+03   -0.10320E-04   -0.10643E-04  5256   0.152E-02    0.467E-02
DAV:  17    -0.932483484935E+03   -0.10556E-04   -0.32286E-05  4064   0.995E-03    0.318E-02
DAV:  18    -0.932483492928E+03   -0.79929E-05   -0.22498E-05  3520   0.683E-03    0.198E-02
DAV:  19    -0.932483498152E+03   -0.52249E-05   -0.80535E-06  3144   0.344E-03    0.118E-02
DAV:  20    -0.932483507778E+03   -0.96260E-05   -0.16092E-06  2376   0.187E-03    0.827E-03
DAV:  21    -0.932483527613E+03   -0.19835E-04   -0.44936E-06  2968   0.290E-03    0.500E-03
DAV:  22    -0.932483532524E+03   -0.49106E-05   -0.25027E-06  2432   0.188E-03
  16 F= -.10055163E+04 E0= -.10054740E+04  d E =-.147072E+01
 curvature:  -4.02 expect dE=-0.228E+01 dE for cont linesearch -0.219E-02
 trial: gam= 2.64405 g(F)=  0.567E+00 g(S)=  0.000E+00 ort =-0.121E-01 (trialstep = 0.330E+00)
 search vector abs. value=  0.238E+01
 bond charge predicted
       N       E                     dE             d eps       ncg     rms          rms(c)
DAV:   1    -0.932576820550E+03   -0.93293E-01   -0.21573E+01  4168   0.683E+00    0.338E+00
DAV:   2    -0.933261680761E+03   -0.68486E+00   -0.10806E+00  5776   0.231E+00    0.948E+00
DAV:   3    -0.932613511138E+03    0.64817E+00   -0.57012E-01  5368   0.200E+00    0.201E+00
DAV:   4    -0.932906959670E+03   -0.29345E+00   -0.28397E-01  4872   0.170E+00    0.191E+00
DAV:   5    -0.932613699390E+03    0.29326E+00   -0.79820E-02  5040   0.113E+00    0.107E+00
DAV:   6    -0.932614380486E+03   -0.68110E-03   -0.43343E-02  5248   0.291E-01    0.675E-01
DAV:   7    -0.932617562311E+03   -0.31818E-02   -0.18029E-02  5032   0.219E-01    0.516E-01
DAV:   8    -0.932615246763E+03    0.23155E-02   -0.10977E-02  5008   0.200E-01    0.322E-01
DAV:   9    -0.932614703960E+03    0.54280E-03   -0.27994E-03  5672   0.985E-02    0.163E-01
DAV:  10    -0.932614791539E+03   -0.87579E-04   -0.18708E-03  4848   0.593E-02    0.158E-01
DAV:  11    -0.932614752002E+03    0.39537E-04   -0.42811E-04  5024   0.276E-02    0.113E-01
DAV:  12    -0.932614723376E+03    0.28626E-04   -0.11567E-04  5472   0.204E-02    0.664E-02
DAV:  13    -0.932614759811E+03   -0.36435E-04   -0.31123E-04  5912   0.292E-02    0.306E-02
DAV:  14    -0.932614785647E+03   -0.25836E-04   -0.12393E-04  4456   0.147E-02    0.224E-02
DAV:  15    -0.932614793446E+03   -0.77987E-05   -0.12830E-05  3744   0.592E-03    0.141E-02
DAV:  16    -0.932614808282E+03   -0.14836E-04   -0.56191E-06  2864   0.295E-03    0.910E-03
DAV:  17    -0.932614831172E+03   -0.22890E-04   -0.38273E-06  2872   0.365E-03    0.260E-03
DAV:  18    -0.932614842399E+03   -0.11227E-04   -0.56919E-06  2888   0.255E-03    0.626E-03
DAV:  19    -0.932614851992E+03   -0.95932E-05   -0.10007E-06  2360   0.170E-03    0.439E-03
DAV:  20    -0.932614873519E+03   -0.21527E-04   -0.42410E-06  3048   0.186E-03    0.164E-03
DAV:  21    -0.932614880207E+03   -0.66883E-05   -0.12268E-06  2440   0.117E-03    0.230E-03
DAV:  22    -0.932614884315E+03   -0.41079E-05   -0.42774E-07  2280   0.905E-04
  17 F= -.10056670E+04 E0= -.10056233E+04  d E =-.150641E+00
 trial-energy change:   -0.150641  1 .order   -0.149316   -0.176918   -0.121714
 step:   0.8602(harm=  1.0588)  dis= 0.11135  next Energy= -1005.770036 (dE=-0.254E+00)
 bond charge predicted
       N       E                     dE             d eps       ncg     rms          rms(c)
DAV:   1    -0.932486706767E+03    0.12817E+00   -0.55960E+01  4160   0.111E+01    0.460E+00
DAV:   2    -0.932924328808E+03   -0.43762E+00   -0.27307E+00  5040   0.255E+00    0.704E+00
DAV:   3    -0.932986749237E+03   -0.62420E-01   -0.36251E+00  5696   0.254E+00    0.363E+00
DAV:   4    -0.933072456664E+03   -0.85707E-01   -0.24188E-01  5176   0.219E+00    0.320E+00
DAV:   5    -0.932710130480E+03    0.36233E+00   -0.19648E-01  5104   0.130E+00    0.236E+00
DAV:   6    -0.932688397244E+03    0.21733E-01   -0.84693E-02  5392   0.443E-01    0.160E+00
DAV:   7    -0.932685939495E+03    0.24577E-02   -0.64872E-02  5384   0.470E-01    0.807E-01
DAV:   8    -0.932685818372E+03    0.12112E-03   -0.46606E-02  4840   0.334E-01    0.668E-01
DAV:   9    -0.932684600775E+03    0.12176E-02   -0.78260E-03  4784   0.125E-01    0.393E-01
DAV:  10    -0.932687298617E+03   -0.26978E-02   -0.78364E-03  6760   0.176E-01    0.573E-01
DAV:  11    -0.932685899057E+03    0.13996E-02   -0.88543E-03  4496   0.909E-02    0.587E-01
DAV:  12    -0.932684292552E+03    0.16065E-02   -0.65003E-04  6016   0.488E-02    0.390E-01
DAV:  13    -0.932684349200E+03   -0.56648E-04   -0.18329E-03  5056   0.490E-02    0.222E-01
DAV:  14    -0.932684479196E+03   -0.13000E-03   -0.57052E-04  5672   0.402E-02    0.705E-02
DAV:  15    -0.932684686373E+03   -0.20718E-03   -0.61694E-04  4360   0.228E-02    0.258E-02
DAV:  16    -0.932684700418E+03   -0.14045E-04   -0.31611E-05  4784   0.624E-03    0.188E-02
DAV:  17    -0.932684727713E+03   -0.27295E-04   -0.58872E-06  3048   0.531E-03    0.179E-02
DAV:  18    -0.932684752707E+03   -0.24994E-04   -0.64320E-06  2960   0.416E-03    0.106E-02
DAV:  19    -0.932684766327E+03   -0.13620E-04   -0.53362E-06  2816   0.298E-03    0.583E-03
DAV:  20    -0.932684773644E+03   -0.73175E-05   -0.12186E-06  2304   0.168E-03    0.386E-03
DAV:  21    -0.932684805167E+03   -0.31523E-04   -0.66072E-06  3144   0.201E-03    0.431E-03
DAV:  22    -0.932684813777E+03   -0.86097E-05   -0.11168E-06  2520   0.184E-03    0.448E-03
DAV:  23    -0.932684818354E+03   -0.45768E-05   -0.11511E-06  2336   0.903E-04
  18 F= -.10057678E+04 E0= -.10057223E+04  d E =-.251449E+00
 curvature:  -2.18 expect dE=-0.233E+01 dE for cont linesearch -0.117E-03
 trial: gam= 0.82539 g(F)=  0.107E+01 g(S)=  0.000E+00 ort =-0.113E-01 (trialstep = 0.388E+00)
 search vector abs. value=  0.267E+01
 bond charge predicted
       N       E                     dE             d eps       ncg     rms          rms(c)
DAV:   1    -0.932837808873E+03   -0.15300E+00   -0.40211E+01  4168   0.932E+00    0.290E+00
DAV:   2    -0.933033770453E+03   -0.19596E+00   -0.21233E+00  4440   0.161E+00    0.127E+00
DAV:   3    -0.933041917011E+03   -0.81466E-02   -0.43010E-02  5056   0.509E-01    0.104E+00
DAV:   4    -0.933039320295E+03    0.25967E-02   -0.10854E-02  4912   0.468E-01    0.833E-01
DAV:   5    -0.933033770715E+03    0.55496E-02   -0.16964E-02  5272   0.365E-01    0.703E-01
DAV:   6    -0.933028355873E+03    0.54148E-02   -0.66022E-03  5400   0.244E-01    0.393E-01
DAV:   7    -0.933029312241E+03   -0.95637E-03   -0.11687E-02  4728   0.141E-01    0.175E-01
DAV:   8    -0.933028867997E+03    0.44424E-03   -0.42083E-03  4848   0.102E-01    0.112E-01
DAV:   9    -0.933028664756E+03    0.20324E-03   -0.95337E-04  5096   0.567E-02    0.740E-02
DAV:  10    -0.933028746632E+03   -0.81876E-04   -0.46972E-04  4960   0.278E-02    0.421E-02
DAV:  11    -0.933028781050E+03   -0.34418E-04   -0.13197E-04  4888   0.208E-02    0.194E-02
DAV:  12    -0.933028807942E+03   -0.26892E-04   -0.77297E-05  4616   0.102E-02    0.105E-02
DAV:  13    -0.933028826417E+03   -0.18475E-04   -0.53710E-06  2584   0.533E-03    0.576E-03
DAV:  14    -0.933028858129E+03   -0.31711E-04   -0.77149E-06  3184   0.306E-03    0.450E-03
DAV:  15    -0.933028879030E+03   -0.20901E-04   -0.18021E-06  2552   0.208E-03    0.322E-03
DAV:  16    -0.933028904581E+03   -0.25551E-04   -0.32335E-06  2872   0.213E-03    0.177E-03
DAV:  17    -0.933028925076E+03   -0.20494E-04   -0.27190E-06  2720   0.162E-03    0.149E-03
DAV:  18    -0.933028938665E+03   -0.13589E-04   -0.18073E-06  2664   0.115E-03    0.185E-03
DAV:  19    -0.933028943979E+03   -0.53147E-05   -0.52832E-07  2320   0.802E-04    0.167E-03
DAV:  20    -0.933028948931E+03   -0.49522E-05   -0.51257E-07  2456   0.913E-04
  19 F= -.10061349E+04 E0= -.10060887E+04  d E =-.367078E+00
 trial-energy change:   -0.367078  1 .order   -0.366135   -0.412560   -0.319710
 step:   1.4734(harm=  1.7245)  dis= 0.15957  next Energy= -1006.602499 (dE=-0.835E+00)
 bond charge predicted
       N       E                     dE             d eps       ncg     rms          rms(c)
DAV:   1    -0.931701488683E+03    0.13275E+01   -0.31747E+02  4184   0.268E+01    0.114E+01
DAV:   2    -0.933692159900E+03   -0.19907E+01   -0.20524E+01  4640   0.565E+00    0.625E+00
DAV:   3    -0.933661780838E+03    0.30379E-01   -0.66183E-01  5048   0.252E+00    0.384E+00
DAV:   4    -0.933572953762E+03    0.88827E-01   -0.27578E-01  4864   0.166E+00    0.341E+00
DAV:   5    -0.933482765336E+03    0.90188E-01   -0.79795E-02  4992   0.933E-01    0.268E+00
DAV:   6    -0.933477176539E+03    0.55888E-02   -0.11011E-01  5304   0.676E-01    0.159E+00
DAV:   7    -0.933465960164E+03    0.11216E-01   -0.77934E-02  4840   0.422E-01    0.117E+00
DAV:   8    -0.933468435882E+03   -0.24757E-02   -0.19112E-02  5328   0.243E-01    0.972E-01
DAV:   9    -0.933469904156E+03   -0.14683E-02   -0.10738E-02  6480   0.365E-01    0.440E-01
DAV:  10    -0.933468211555E+03    0.16926E-02   -0.92643E-03  4480   0.151E-01    0.251E-01
DAV:  11    -0.933468110077E+03    0.10148E-03   -0.33223E-03  4800   0.807E-02    0.166E-01
DAV:  12    -0.933467952383E+03    0.15769E-03   -0.23935E-03  5944   0.789E-02    0.762E-02
DAV:  13    -0.933468013567E+03   -0.61184E-04   -0.63414E-04  4960   0.434E-02    0.520E-02
DAV:  14    -0.933468032850E+03   -0.19282E-04   -0.10798E-04  4832   0.121E-02    0.446E-02
DAV:  15    -0.933468085618E+03   -0.52768E-04   -0.70410E-05  5064   0.185E-02    0.196E-02
DAV:  16    -0.933468179017E+03   -0.93400E-04   -0.15868E-04  4864   0.132E-02    0.212E-02
DAV:  17    -0.933468233484E+03   -0.54467E-04   -0.16985E-05  3928   0.556E-03    0.153E-02
DAV:  18    -0.933468277442E+03   -0.43957E-04   -0.62798E-06  3056   0.358E-03    0.118E-02
DAV:  19    -0.933468279803E+03   -0.23615E-05   -0.35451E-06  2696   0.240E-03
  20 F= -.10066382E+04 E0= -.10065908E+04  d E =-.870448E+00
 curvature:  -2.09 expect dE=-0.628E+00 dE for cont linesearch -0.566E-02
 ZBRENT: extrapolating
 opt :   1.5983  next Energy= -1006.643554 (dE=-0.876E+00)
 bond charge predicted
       N       E                     dE             d eps       ncg     rms          rms(c)
DAV:   1    -0.933448396348E+03    0.19881E-01   -0.42182E+00  4120   0.301E+00    0.802E-01
DAV:   2    -0.933466634619E+03   -0.18238E-01   -0.19613E-01  4792   0.523E-01    0.394E-01
DAV:   3    -0.933469543518E+03   -0.29089E-02   -0.48734E-03  5024   0.253E-01    0.301E-01
DAV:   4    -0.933466561706E+03    0.29818E-02   -0.25437E-03  4888   0.194E-01    0.227E-01
DAV:   5    -0.933465919630E+03    0.64208E-03   -0.15671E-03  5256   0.972E-02    0.199E-01
DAV:   6    -0.933465735750E+03    0.18388E-03   -0.80456E-04  5104   0.587E-02    0.115E-01
DAV:   7    -0.933465776441E+03   -0.40691E-04   -0.90700E-04  4896   0.459E-02    0.668E-02
DAV:   8    -0.933465727994E+03    0.48447E-04   -0.25202E-04  4960   0.260E-02    0.275E-02
DAV:   9    -0.933465741658E+03   -0.13663E-04   -0.10059E-04  5176   0.149E-02    0.180E-02
DAV:  10    -0.933465749518E+03   -0.78606E-05   -0.28480E-05  4232   0.637E-03    0.143E-02
DAV:  11    -0.933465753145E+03   -0.36266E-05   -0.34558E-06  2408   0.440E-03
  21 F= -.10066431E+04 E0= -.10065955E+04  d E =-.875284E+00
 curvature:  -1.96 expect dE=-0.688E+00 dE for cont linesearch -0.484E-04
 trial: gam= 0.26196 g(F)=  0.350E+00 g(S)=  0.000E+00 ort =-0.812E-02 (trialstep = 0.630E+00)
 search vector abs. value=  0.529E+00
 bond charge predicted
       N       E                     dE             d eps       ncg     rms          rms(c)
DAV:   1    -0.933565911931E+03   -0.10016E+00   -0.15985E+01  4264   0.590E+00    0.185E+00
DAV:   2    -0.933646666270E+03   -0.80754E-01   -0.87036E-01  4744   0.120E+00    0.844E-01
DAV:   3    -0.933671556285E+03   -0.24890E-01   -0.34394E-02  5120   0.639E-01    0.719E-01
DAV:   4    -0.933645482319E+03    0.26074E-01   -0.12843E-02  5072   0.492E-01    0.490E-01
DAV:   5    -0.933641827687E+03    0.36546E-02   -0.79296E-03  5104   0.212E-01    0.419E-01
DAV:   6    -0.933640951772E+03    0.87592E-03   -0.60347E-03  5096   0.163E-01    0.231E-01
DAV:   7    -0.933640931783E+03    0.19988E-04   -0.52436E-03  4952   0.968E-02    0.143E-01
DAV:   8    -0.933640757204E+03    0.17458E-03   -0.91776E-04  4952   0.570E-02    0.853E-02
DAV:   9    -0.933640815273E+03   -0.58068E-04   -0.60472E-04  4872   0.328E-02    0.297E-02
DAV:  10    -0.933640830208E+03   -0.14935E-04   -0.16812E-04  4840   0.163E-02    0.188E-02
DAV:  11    -0.933640842086E+03   -0.11879E-04   -0.26904E-05  4608   0.916E-03    0.119E-02
DAV:  12    -0.933640848453E+03   -0.63671E-05   -0.16947E-05  4120   0.626E-03    0.401E-03
DAV:  13    -0.933640856006E+03   -0.75526E-05   -0.29014E-06  2360   0.287E-03    0.199E-03
DAV:  14    -0.933640866409E+03   -0.10403E-04   -0.13054E-06  2432   0.168E-03    0.121E-03
DAV:  15    -0.933640875892E+03   -0.94840E-05   -0.99898E-07  2456   0.135E-03    0.645E-04
DAV:  16    -0.933640881482E+03   -0.55899E-05   -0.63615E-07  2336   0.108E-03    0.703E-04
DAV:  17    -0.933640885904E+03   -0.44211E-05   -0.43447E-07  2400   0.886E-04
  22 F= -.10068326E+04 E0= -.10067849E+04  d E =-.189561E+00
 trial-energy change:   -0.189561  1 .order   -0.189337   -0.219228   -0.159446
 step:   2.3109(harm=  2.3109)  dis= 0.11319  next Energy= -1007.045045 (dE=-0.402E+00)
 bond charge predicted
       N       E                     dE             d eps       ncg     rms          rms(c)
DAV:   1    -0.933141899807E+03    0.49898E+00   -0.11379E+02  4208   0.160E+01    0.642E+00
DAV:   2    -0.933882400857E+03   -0.74050E+00   -0.77506E+00  4744   0.372E+00    0.320E+00
DAV:   3    -0.933984469326E+03   -0.10207E+00   -0.32743E-01  5072   0.195E+00    0.215E+00
DAV:   4    -0.933837733347E+03    0.14674E+00   -0.12903E-01  5000   0.139E+00    0.165E+00
DAV:   5    -0.933797301340E+03    0.40432E-01   -0.59965E-02  5056   0.671E-01    0.141E+00
DAV:   6    -0.933788679192E+03    0.86221E-02   -0.56586E-02  5392   0.520E-01    0.737E-01
DAV:   7    -0.933787141861E+03    0.15373E-02   -0.42815E-02  4800   0.284E-01    0.533E-01
DAV:   8    -0.933786313715E+03    0.82815E-03   -0.75641E-03  5064   0.170E-01    0.396E-01
DAV:   9    -0.933787181179E+03   -0.86746E-03   -0.29692E-03  5096   0.137E-01    0.197E-01
DAV:  10    -0.933786923516E+03    0.25766E-03   -0.18531E-03  4824   0.745E-02    0.103E-01
DAV:  11    -0.933786944480E+03   -0.20963E-04   -0.79673E-04  4864   0.362E-02    0.681E-02
DAV:  12    -0.933786936632E+03    0.78480E-05   -0.28413E-04  5232   0.244E-02    0.347E-02
DAV:  13    -0.933786961010E+03   -0.24379E-04   -0.12530E-04  5048   0.152E-02    0.269E-02
DAV:  14    -0.933786983767E+03   -0.22757E-04   -0.86948E-05  4704   0.114E-02    0.245E-02
DAV:  15    -0.933787027513E+03   -0.43746E-04   -0.40742E-05  4304   0.747E-03    0.222E-02
DAV:  16    -0.933787021803E+03    0.57101E-05   -0.15363E-05  3448   0.936E-03    0.121E-02
DAV:  17    -0.933787027214E+03   -0.54118E-05   -0.24291E-05  3696   0.457E-03    0.480E-03
DAV:  18    -0.933787032720E+03   -0.55059E-05   -0.13255E-06  2368   0.289E-03    0.383E-03
DAV:  19    -0.933787045297E+03   -0.12577E-04   -0.31610E-06  2704   0.237E-03    0.692E-03
DAV:  20    -0.933787063725E+03   -0.18428E-04   -0.24340E-06  2752   0.258E-03    0.517E-03
DAV:  21    -0.933787070263E+03   -0.65378E-05   -0.15597E-06  2504   0.194E-03    0.271E-03
DAV:  22    -0.933787073629E+03   -0.33658E-05   -0.13411E-06  2312   0.120E-03
  23 F= -.10070174E+04 E0= -.10069694E+04  d E =-.374334E+00
 curvature:  -1.76 expect dE=-0.241E+00 dE for cont linesearch -0.934E-02
 ZBRENT: interpolating
 opt :   2.0196  next Energy= -1007.025137 (dE=-0.382E+00)
 bond charge predicted
       N       E                     dE             d eps       ncg     rms          rms(c)
DAV:   1    -0.933783526161E+03    0.35441E-02   -0.34478E+00  4240   0.274E+00    0.851E-01
DAV:   2    -0.933800571632E+03   -0.17045E-01   -0.18586E-01  4728   0.456E-01    0.345E-01
DAV:   3    -0.933803455397E+03   -0.28838E-02   -0.40600E-03  5024   0.201E-01    0.301E-01
DAV:   4    -0.933800391070E+03    0.30643E-02   -0.17787E-03  4928   0.160E-01    0.232E-01
DAV:   5    -0.933800164729E+03    0.22634E-03   -0.11972E-03  5312   0.760E-02    0.192E-01
DAV:   6    -0.933799879598E+03    0.28513E-03   -0.12627E-03  5200   0.653E-02    0.846E-02
DAV:   7    -0.933799904359E+03   -0.24761E-04   -0.99880E-04  4952   0.439E-02    0.423E-02
DAV:   8    -0.933799872522E+03    0.31837E-04   -0.14149E-04  4960   0.204E-02    0.191E-02
DAV:   9    -0.933799877517E+03   -0.49943E-05   -0.43644E-05  4928   0.844E-03
  24 F= -.10070235E+04 E0= -.10069756E+04  d E =-.380440E+00
 curvature:  -1.45 expect dE=-0.150E+00 dE for cont linesearch -0.271E-03
 trial: gam= 0.22514 g(F)=  0.103E+00 g(S)=  0.000E+00 ort = 0.993E-02 (trialstep = 0.908E+00)
 search vector abs. value=  0.134E+00
 bond charge predicted
       N       E                     dE             d eps       ncg     rms          rms(c)
DAV:   1    -0.933842177513E+03   -0.42305E-01   -0.62699E+00  4128   0.351E+00    0.129E+00
DAV:   2    -0.933872683794E+03   -0.30506E-01   -0.33759E-01  4536   0.629E-01    0.500E-01
DAV:   3    -0.933872990772E+03   -0.30698E-03   -0.10675E-02  4968   0.196E-01    0.412E-01
DAV:   4    -0.933873955701E+03   -0.96493E-03   -0.22871E-03  4952   0.170E-01    0.350E-01
DAV:   5    -0.933871985594E+03    0.19701E-02   -0.21617E-03  5072   0.121E-01    0.247E-01
DAV:   6    -0.933871772522E+03    0.21307E-03   -0.47630E-04  5168   0.597E-02    0.176E-01
DAV:   7    -0.933871782590E+03   -0.10068E-04   -0.85701E-04  4952   0.517E-02    0.878E-02
DAV:   8    -0.933871770833E+03    0.11757E-04   -0.66574E-04  4728   0.455E-02    0.406E-02
DAV:   9    -0.933871708217E+03    0.62616E-04   -0.31940E-04  4960   0.296E-02    0.373E-02
DAV:  10    -0.933871712277E+03   -0.40597E-05   -0.11119E-04  4928   0.129E-02    0.297E-02
DAV:  11    -0.933871712220E+03    0.57073E-07   -0.17877E-05  3712   0.616E-03
  25 F= -.10071054E+04 E0= -.10070572E+04  d E =-.818364E-01
 trial-energy change:   -0.081836  1 .order   -0.081624   -0.095690   -0.067558
 step:   2.8200(harm=  3.0887)  dis= 0.06078  next Energy= -1007.178461 (dE=-0.155E+00)
 bond charge predicted
       N       E                     dE             d eps       ncg     rms          rms(c)
DAV:   1    -0.933779017019E+03    0.92695E-01   -0.27863E+01  4136   0.748E+00    0.301E+00
DAV:   2    -0.933930871696E+03   -0.15185E+00   -0.16818E+00  4480   0.137E+00    0.137E+00
DAV:   3    -0.933926514649E+03    0.43570E-02   -0.55248E-02  5256   0.414E-01    0.974E-01
DAV:   4    -0.933925921289E+03    0.59336E-03   -0.20822E-02  5168   0.278E-01    0.786E-01
DAV:   5    -0.933928485745E+03   -0.25645E-02   -0.80410E-03  4952   0.222E-01    0.596E-01
DAV:   6    -0.933924941785E+03    0.35440E-02   -0.17540E-03  5248   0.217E-01    0.451E-01
DAV:   7    -0.933924699530E+03    0.24225E-03   -0.61747E-03  5264   0.158E-01    0.255E-01
DAV:   8    -0.933923065245E+03    0.16343E-02   -0.39192E-03  5008   0.109E-01    0.903E-02
DAV:   9    -0.933923126743E+03   -0.61498E-04   -0.99341E-04  5024   0.436E-02    0.440E-02
DAV:  10    -0.933923148903E+03   -0.22160E-04   -0.22079E-04  5128   0.206E-02    0.343E-02
DAV:  11    -0.933923167341E+03   -0.18438E-04   -0.88341E-05  4776   0.139E-02    0.150E-02
DAV:  12    -0.933923181225E+03   -0.13884E-04   -0.23619E-05  4344   0.842E-03    0.832E-03
DAV:  13    -0.933923196104E+03   -0.14879E-04   -0.99322E-06  3152   0.414E-03    0.433E-03
DAV:  14    -0.933923223200E+03   -0.27096E-04   -0.19224E-06  2496   0.267E-03    0.226E-03
DAV:  15    -0.933923247374E+03   -0.24174E-04   -0.16427E-06  2560   0.156E-03    0.188E-03
DAV:  16    -0.933923267659E+03   -0.20285E-04   -0.10284E-06  2576   0.179E-03    0.132E-03
DAV:  17    -0.933923289326E+03   -0.21666E-04   -0.18051E-06  2688   0.169E-03    0.209E-03
DAV:  18    -0.933923301926E+03   -0.12600E-04   -0.81261E-07  2472   0.139E-03    0.167E-03
DAV:  19    -0.933923309706E+03   -0.77806E-05   -0.47279E-07  2352   0.962E-04    0.120E-03
DAV:  20    -0.933923315201E+03   -0.54949E-05   -0.48427E-07  2344   0.919E-04    0.490E-04
DAV:  21    -0.933923318305E+03   -0.31040E-05   -0.23846E-07  2312   0.694E-04
  26 F= -.10071781E+04 E0= -.10071294E+04  d E =-.154536E+00
 curvature:  -1.94 expect dE=-0.364E+00 dE for cont linesearch -0.648E-05
 trial: gam= 1.82866 g(F)=  0.188E+00 g(S)=  0.000E+00 ort =-0.670E-03 (trialstep = 0.273E+00)
 search vector abs. value=  0.635E+00
 bond charge predicted
       N       E                     dE             d eps       ncg     rms          rms(c)
DAV:   1    -0.933953912917E+03   -0.30598E-01   -0.27886E+00  4096   0.240E+00    0.659E-01
DAV:   2    -0.933966444225E+03   -0.12531E-01   -0.13314E-01  4680   0.427E-01    0.302E-01
DAV:   3    -0.933968339742E+03   -0.18955E-02   -0.35180E-03  5208   0.199E-01    0.230E-01
DAV:   4    -0.933966320615E+03    0.20191E-02   -0.16141E-03  5072   0.146E-01    0.181E-01
DAV:   5    -0.933966064190E+03    0.25643E-03   -0.96518E-04  5224   0.740E-02    0.150E-01
DAV:   6    -0.933965930568E+03    0.13362E-03   -0.11158E-03  4888   0.597E-02    0.904E-02
DAV:   7    -0.933965859041E+03    0.71526E-04   -0.61738E-04  5112   0.397E-02    0.357E-02
DAV:   8    -0.933965865440E+03   -0.63992E-05   -0.15900E-04  4928   0.227E-02    0.205E-02
DAV:   9    -0.933965873604E+03   -0.81640E-05   -0.70962E-05  4760   0.107E-02    0.131E-02
DAV:  10    -0.933965872439E+03    0.11649E-05   -0.18410E-05  4120   0.862E-03
  27 F= -.10072284E+04 E0= -.10071796E+04  d E =-.503721E-01
 ZBRENT: can't locate minimum, use default step
 trial-energy change:   -0.050372  1 .order   -0.050321   -0.050942   -0.049700
 step:   1.0933(harm= 11.2054)  dis= 0.04952  next Energy= -1008.222269 (dE=-0.104E+01)
 bond charge predicted
       N       E                     dE             d eps       ncg     rms          rms(c)
DAV:   1    -0.933967056548E+03   -0.11829E-02   -0.25120E+01  4096   0.723E+00    0.224E+00
DAV:   2    -0.934093673490E+03   -0.12662E+00   -0.13432E+00  4688   0.149E+00    0.114E+00
DAV:   3    -0.934111891605E+03   -0.18218E-01   -0.46819E-02  5296   0.751E-01    0.778E-01
DAV:   4    -0.934089069840E+03    0.22822E-01   -0.21554E-02  5128   0.515E-01    0.604E-01
DAV:   5    -0.934084962385E+03    0.41075E-02   -0.10326E-02  5248   0.255E-01    0.509E-01
DAV:   6    -0.934084073827E+03    0.88856E-03   -0.10714E-02  4912   0.189E-01    0.333E-01
DAV:   7    -0.934083101211E+03    0.97262E-03   -0.67618E-03  5120   0.131E-01    0.144E-01
DAV:   8    -0.934083167307E+03   -0.66096E-04   -0.13774E-03  4984   0.741E-02    0.836E-02
DAV:   9    -0.934083272257E+03   -0.10495E-03   -0.71982E-04  4880   0.382E-02    0.388E-02
DAV:  10    -0.934083259962E+03    0.12295E-04   -0.29391E-04  4944   0.303E-02    0.365E-02
DAV:  11    -0.934083279347E+03   -0.19385E-04   -0.17713E-04  4824   0.174E-02    0.370E-02
DAV:  12    -0.934083294604E+03   -0.15257E-04   -0.44010E-05  4432   0.915E-03    0.305E-02
DAV:  13    -0.934083291988E+03    0.26156E-05   -0.23803E-05  4040   0.116E-02
  28 F= -.10073693E+04 E0= -.10073203E+04  d E =-.191272E+00
 curvature:  -2.76 expect dE=-0.348E+00 dE for cont linesearch -0.109E+00
 ZBRENT: increasing intervall
 opt :   2.7333  next Energy= -1007.591556 (dE=-0.414E+00)
 bond charge predicted
       N       E                     dE             d eps       ncg     rms          rms(c)
DAV:   1    -0.933681385847E+03    0.40191E+00   -0.10096E+02  4096   0.147E+01    0.550E+00
DAV:   2    -0.934294299295E+03   -0.61291E+00   -0.64160E+00  4688   0.344E+00    0.301E+00
DAV:   3    -0.934374488526E+03   -0.80189E-01   -0.33024E-01  5168   0.190E+00    0.196E+00
DAV:   4    -0.934236242094E+03    0.13825E+00   -0.13659E-01  5016   0.120E+00    0.151E+00
DAV:   5    -0.934219463861E+03    0.16778E-01   -0.50650E-02  5152   0.562E-01    0.121E+00
DAV:   6    -0.934212134278E+03    0.73296E-02   -0.47500E-02  5024   0.403E-01    0.806E-01
DAV:   7    -0.934209495462E+03    0.26388E-02   -0.28110E-02  4992   0.253E-01    0.423E-01
DAV:   8    -0.934209962811E+03   -0.46735E-03   -0.48566E-03  5056   0.155E-01    0.318E-01
DAV:   9    -0.934210129238E+03   -0.16643E-03   -0.24418E-03  5136   0.121E-01    0.981E-02
DAV:  10    -0.934210160440E+03   -0.31201E-04   -0.28471E-03  4824   0.806E-02    0.113E-01
DAV:  11    -0.934210166854E+03   -0.64147E-05   -0.51454E-04  5024   0.281E-02    0.111E-01
DAV:  12    -0.934210133851E+03    0.33003E-04   -0.11217E-04  5168   0.181E-02    0.652E-02
DAV:  13    -0.934210155048E+03   -0.21197E-04   -0.39283E-04  5712   0.418E-02    0.150E-02
DAV:  14    -0.934210197860E+03   -0.42812E-04   -0.28922E-04  4432   0.179E-02    0.340E-02
DAV:  15    -0.934210200462E+03   -0.26023E-05   -0.11188E-05  3320   0.515E-03
  29 F= -.10075433E+04 E0= -.10074937E+04  d E =-.365259E+00
 curvature:  -5.60 expect dE=-0.428E+00 dE for cont linesearch -0.965E-02
 ZBRENT: extrapolating
 opt :   3.1651  next Energy= -1007.550453 (dE=-0.372E+00)
 bond charge predicted
       N       E                     dE             d eps       ncg     rms          rms(c)
DAV:   1    -0.934167185612E+03    0.43012E-01   -0.70438E+00  4104   0.381E+00    0.107E+00
DAV:   2    -0.934203012018E+03   -0.35826E-01   -0.37771E-01  4720   0.765E-01    0.589E-01
DAV:   3    -0.934209552782E+03   -0.65408E-02   -0.14303E-02  5216   0.408E-01    0.437E-01
DAV:   4    -0.934201251334E+03    0.83014E-02   -0.69942E-03  5040   0.281E-01    0.329E-01
DAV:   5    -0.934200511722E+03    0.73961E-03   -0.31615E-03  5208   0.129E-01    0.279E-01
DAV:   6    -0.934200230085E+03    0.28164E-03   -0.29601E-03  4968   0.978E-02    0.188E-01
DAV:   7    -0.934199958845E+03    0.27124E-03   -0.21064E-03  5144   0.756E-02    0.836E-02
DAV:   8    -0.934199985565E+03   -0.26720E-04   -0.51587E-04  4840   0.359E-02    0.386E-02
DAV:   9    -0.934200011809E+03   -0.26243E-04   -0.15992E-04  5232   0.185E-02    0.239E-02
DAV:  10    -0.934200027519E+03   -0.15711E-04   -0.72102E-05  5288   0.147E-02    0.216E-02
DAV:  11    -0.934200044060E+03   -0.16541E-04   -0.43925E-05  4616   0.866E-03    0.199E-02
DAV:  12    -0.934200054662E+03   -0.10602E-04   -0.80213E-06  2832   0.568E-03    0.141E-02
DAV:  13    -0.934200062904E+03   -0.82426E-05   -0.13532E-05  3400   0.684E-03    0.523E-03
DAV:  14    -0.934200070246E+03   -0.73414E-05   -0.88002E-06  2976   0.331E-03    0.253E-03
DAV:  15    -0.934200075247E+03   -0.50012E-05   -0.65195E-07  2296   0.130E-03    0.206E-03
DAV:  16    -0.934200086879E+03   -0.11632E-04   -0.63350E-07  2472   0.127E-03    0.115E-03
DAV:  17    -0.934200096369E+03   -0.94899E-05   -0.80520E-07  2416   0.135E-03    0.223E-03
DAV:  18    -0.934200098346E+03   -0.19773E-05   -0.27771E-07  2280   0.103E-03
  30 F= -.10075456E+04 E0= -.10074959E+04  d E =-.367579E+00
 curvature:  -4.14 expect dE=-0.474E+00 dE for cont linesearch -0.379E-02
 ZBRENT: bracketing found
 ZBRENT: interpolating
 opt :   2.9831  next Energy= -1007.547827 (dE=-0.370E+00)
 bond charge predicted
       N       E                     dE             d eps       ncg     rms          rms(c)
DAV:   1    -0.934201672805E+03   -0.15764E-02   -0.12532E+00  4104   0.161E+00    0.429E-01
DAV:   2    -0.934207729689E+03   -0.60569E-02   -0.64459E-02  4720   0.283E-01    0.208E-01
DAV:   3    -0.934208990665E+03   -0.12610E-02   -0.21248E-03  5144   0.141E-01    0.176E-01
DAV:   4    -0.934207612109E+03    0.13786E-02   -0.86376E-04  5016   0.104E-01    0.136E-01
DAV:   5    -0.934207581886E+03    0.30223E-04   -0.57078E-04  5248   0.484E-02    0.110E-01
DAV:   6    -0.934207458082E+03    0.12380E-03   -0.49958E-04  4968   0.407E-02    0.644E-02
DAV:   7    -0.934207459639E+03   -0.15573E-05   -0.31566E-04  5024   0.269E-02    0.280E-02
DAV:   8    -0.934207453355E+03    0.62844E-05   -0.64989E-05  4792   0.139E-02    0.147E-02
DAV:   9    -0.934207457122E+03   -0.37668E-05   -0.25090E-05  4112   0.644E-03
  31 F= -.10075478E+04 E0= -.10074981E+04  d E =-.369700E+00
 curvature:  -2.40 expect dE=-0.224E+00 dE for cont linesearch -0.157E-05
 trial: gam= 0.40932 g(F)=  0.936E-01 g(S)=  0.000E+00 ort = 0.646E-03 (trialstep = 0.815E+00)
 search vector abs. value=  0.200E+00
 bond charge predicted
       N       E                     dE             d eps       ncg     rms          rms(c)
DAV:   1    -0.934223908629E+03   -0.16455E-01   -0.10384E+01  4096   0.445E+00    0.120E+00
DAV:   2    -0.934267853478E+03   -0.43945E-01   -0.46917E-01  4368   0.863E-01    0.675E-01
DAV:   3    -0.934270454710E+03   -0.26012E-02   -0.16333E-02  5144   0.339E-01    0.437E-01
DAV:   4    -0.934267632385E+03    0.28223E-02   -0.55260E-03  4952   0.248E-01    0.377E-01
DAV:   5    -0.934266105908E+03    0.15265E-02   -0.23900E-03  5312   0.130E-01    0.325E-01
DAV:   6    -0.934266268027E+03   -0.16212E-03   -0.27566E-03  4944   0.937E-02    0.221E-01
DAV:   7    -0.934265696365E+03    0.57166E-03   -0.26332E-03  4992   0.880E-02    0.676E-02
DAV:   8    -0.934265767492E+03   -0.71127E-04   -0.84494E-04  4784   0.359E-02    0.436E-02
DAV:   9    -0.934265772141E+03   -0.46496E-05   -0.12773E-04  5456   0.150E-02    0.319E-02
DAV:  10    -0.934265776076E+03   -0.39349E-05   -0.29354E-05  4296   0.830E-03
  32 F= -.10076210E+04 E0= -.10075711E+04  d E =-.732203E-01
 ZBRENT: can't locate minimum, use default step
 trial-energy change:   -0.073220  1 .order   -0.073153   -0.076502   -0.069804
 step:   3.2611(harm=  9.3119)  dis= 0.10216  next Energy= -1007.984650 (dE=-0.437E+00)
 bond charge predicted
       N       E                     dE             d eps       ncg     rms          rms(c)
DAV:   1    -0.933957420380E+03    0.30835E+00   -0.93504E+01  4096   0.136E+01    0.483E+00
DAV:   2    -0.934459128924E+03   -0.50171E+00   -0.52274E+00  4416   0.312E+00    0.290E+00
DAV:   3    -0.934459801658E+03   -0.67273E-03   -0.28038E-01  5088   0.138E+00    0.172E+00
DAV:   4    -0.934419703782E+03    0.40098E-01   -0.91106E-02  4904   0.900E-01    0.147E+00
DAV:   5    -0.934402106195E+03    0.17598E-01   -0.23283E-02  5272   0.426E-01    0.123E+00
DAV:   6    -0.934401237475E+03    0.86872E-03   -0.21263E-02  5016   0.270E-01    0.943E-01
DAV:   7    -0.934398036451E+03    0.32010E-02   -0.24889E-02  4872   0.261E-01    0.307E-01
DAV:   8    -0.934398513992E+03   -0.47754E-03   -0.90979E-03  4816   0.119E-01    0.207E-01
DAV:   9    -0.934398560038E+03   -0.46047E-04   -0.13108E-03  4936   0.487E-02    0.159E-01
DAV:  10    -0.934398674913E+03   -0.11487E-03   -0.27490E-04  5328   0.300E-02    0.109E-01
DAV:  11    -0.934398780781E+03   -0.10587E-03   -0.37713E-04  4760   0.368E-02    0.536E-02
DAV:  12    -0.934398783461E+03   -0.26798E-05   -0.17288E-04  4672   0.215E-02    0.503E-02
DAV:  13    -0.934398788126E+03   -0.46655E-05   -0.92032E-05  5336   0.157E-02    0.352E-02
DAV:  14    -0.934398793486E+03   -0.53598E-05   -0.39761E-05  3904   0.637E-03    0.295E-02
DAV:  15    -0.934398788769E+03    0.47174E-05   -0.11609E-06  2336   0.207E-03
  33 F= -.10077987E+04 E0= -.10077483E+04  d E =-.250949E+00
 curvature:  -4.90 expect dE=-0.631E+00 dE for cont linesearch -0.867E-01
 ZBRENT: increasing intervall
 opt :   8.1528  next Energy= -1007.962408 (dE=-0.415E+00)
 bond charge predicted
       N       E                     dE             d eps       ncg     rms          rms(c)
DAV:   1    -0.932383039322E+03    0.20158E+01   -0.37001E+02  4096   0.279E+01    0.148E+01
DAV:   2    -0.934931069970E+03   -0.25480E+01   -0.26818E+01  4584   0.696E+00    0.803E+00
DAV:   3    -0.934943488127E+03   -0.12418E-01   -0.25690E+00  5000   0.349E+00    0.561E+00
DAV:   4    -0.934534918558E+03    0.40857E+00   -0.54881E-01  4952   0.191E+00    0.476E+00
DAV:   5    -0.934462738077E+03    0.72180E-01   -0.22797E-01  6056   0.107E+00    0.337E+00
DAV:   6    -0.934456016326E+03    0.67218E-02   -0.19204E-01  4856   0.605E-01    0.284E+00
DAV:   7    -0.934473135225E+03   -0.17119E-01   -0.49289E-02  6064   0.527E-01    0.296E+00
DAV:   8    -0.934448136461E+03    0.24999E-01   -0.67033E-02  6720   0.746E-01    0.694E-01
DAV:   9    -0.934455545979E+03   -0.74095E-02   -0.10149E-01  4568   0.320E-01    0.641E-01
DAV:  10    -0.934458033837E+03   -0.24879E-02   -0.78180E-03  5976   0.108E-01    0.742E-01
DAV:  11    -0.934458108627E+03   -0.74791E-04   -0.73049E-04  5136   0.457E-02    0.778E-01
DAV:  12    -0.934455037320E+03    0.30713E-02   -0.22459E-03  6488   0.110E-01    0.628E-01
DAV:  13    -0.934452697967E+03    0.23394E-02   -0.75828E-03  5336   0.115E-01    0.428E-01
DAV:  14    -0.934452257316E+03    0.44065E-03   -0.19745E-03  4848   0.622E-02    0.321E-01
DAV:  15    -0.934451531338E+03    0.72598E-03   -0.22315E-03  6512   0.686E-02    0.176E-01
DAV:  16    -0.934451610549E+03   -0.79211E-04   -0.11263E-03  4664   0.381E-02    0.100E-01
DAV:  17    -0.934451680234E+03   -0.69684E-04   -0.19654E-04  4928   0.188E-02    0.786E-02
DAV:  18    -0.934451698768E+03   -0.18534E-04   -0.29231E-05  4808   0.868E-03    0.610E-02
DAV:  19    -0.934451814994E+03   -0.11623E-03   -0.12342E-04  5824   0.250E-02    0.278E-02
DAV:  20    -0.934451873558E+03   -0.58564E-04   -0.11219E-04  4384   0.107E-02    0.358E-02
DAV:  21    -0.934451874990E+03   -0.14318E-05   -0.79298E-06  3000   0.706E-03
  34 F= -.10079412E+04 E0= -.10078891E+04  d E =-.393432E+00
 curvature:  -9.26 expect dE=-0.368E+01 dE for cont linesearch -0.187E-03
 trial: gam= 3.81813 g(F)=  0.398E+00 g(S)=  0.000E+00 ort =-0.201E-02 (trialstep = 0.138E+00)
 search vector abs. value=  0.330E+01
 bond charge predicted
       N       E                     dE             d eps       ncg     rms          rms(c)
DAV:   1    -0.934474211982E+03   -0.22338E-01   -0.52644E+00  4160   0.321E+00    0.861E-01
DAV:   2    -0.934496053604E+03   -0.21842E-01   -0.23448E-01  4432   0.569E-01    0.451E-01
DAV:   3    -0.934496873346E+03   -0.81974E-03   -0.61705E-03  5088   0.229E-01    0.272E-01
DAV:   4    -0.934496600608E+03    0.27274E-03   -0.25782E-03  4968   0.170E-01    0.238E-01
DAV:   5    -0.934495529831E+03    0.10708E-02   -0.12994E-03  5312   0.103E-01    0.196E-01
DAV:   6    -0.934495535264E+03   -0.54327E-05   -0.11668E-03  5008   0.601E-02    0.140E-01
DAV:   7    -0.934495364342E+03    0.17092E-03   -0.81073E-04  5008   0.489E-02    0.620E-02
DAV:   8    -0.934495406002E+03   -0.41660E-04   -0.29520E-04  5040   0.242E-02    0.263E-02
DAV:   9    -0.934495415887E+03   -0.98853E-05   -0.72915E-05  4800   0.119E-02    0.186E-02
DAV:  10    -0.934495430068E+03   -0.14181E-04   -0.20446E-05  4224   0.653E-03    0.106E-02
DAV:  11    -0.934495451234E+03   -0.21166E-04   -0.58266E-06  2872   0.490E-03    0.604E-03
DAV:  12    -0.934495471062E+03   -0.19829E-04   -0.34775E-06  2520   0.343E-03    0.325E-03
DAV:  13    -0.934495480220E+03   -0.91578E-05   -0.18088E-06  2360   0.203E-03    0.268E-03
DAV:  14    -0.934495497722E+03   -0.17502E-04   -0.80903E-07  2464   0.146E-03    0.109E-03
DAV:  15    -0.934495528560E+03   -0.30837E-04   -0.22583E-06  2864   0.135E-03    0.198E-03
DAV:  16    -0.934495532689E+03   -0.41288E-05   -0.37851E-07  2344   0.810E-04
  35 F= -.10079948E+04 E0= -.10079425E+04  d E =-.536166E-01
 ZBRENT: can't locate minimum, use default step
 trial-energy change:   -0.053617  1 .order   -0.053417   -0.054041   -0.052794
 step:   0.5538(harm=  6.0025)  dis= 0.06392  next Energy= -1009.112550 (dE=-0.117E+01)
 bond charge predicted
       N       E                     dE             d eps       ncg     rms          rms(c)
DAV:   1    -0.934394876509E+03    0.10065E+00   -0.47301E+01  4136   0.974E+00    0.339E+00
DAV:   2    -0.934633232743E+03   -0.23836E+00   -0.25714E+00  4400   0.203E+00    0.179E+00
DAV:   3    -0.934637529161E+03   -0.42964E-02   -0.86707E-02  5104   0.848E-01    0.103E+00
DAV:   4    -0.934630582199E+03    0.69470E-02   -0.35374E-02  4952   0.605E-01    0.887E-01
DAV:   5    -0.934618437973E+03    0.12144E-01   -0.12178E-02  5384   0.333E-01    0.725E-01
DAV:   6    -0.934617606291E+03    0.83168E-03   -0.11590E-02  5000   0.191E-01    0.548E-01
DAV:   7    -0.934615744496E+03    0.18618E-02   -0.83219E-03  4928   0.158E-01    0.224E-01
DAV:   8    -0.934615949407E+03   -0.20491E-03   -0.30544E-03  4880   0.723E-02    0.103E-01
DAV:   9    -0.934615955733E+03   -0.63256E-05   -0.60340E-04  4984   0.345E-02    0.698E-02
DAV:  10    -0.934615983575E+03   -0.27842E-04   -0.13388E-04  4920   0.170E-02    0.438E-02
DAV:  11    -0.934616034435E+03   -0.50860E-04   -0.91175E-05  4840   0.163E-02    0.168E-02
DAV:  12    -0.934616052416E+03   -0.17982E-04   -0.34084E-05  4752   0.105E-02    0.114E-02
DAV:  13    -0.934616067577E+03   -0.15161E-04   -0.14151E-05  3512   0.517E-03    0.109E-02
DAV:  14    -0.934616105818E+03   -0.38241E-04   -0.39854E-06  2768   0.410E-03    0.395E-03
DAV:  15    -0.934616144422E+03   -0.38604E-04   -0.48699E-06  3080   0.304E-03    0.639E-03
DAV:  16    -0.934616157534E+03   -0.13112E-04   -0.13768E-06  2344   0.190E-03    0.576E-03
DAV:  17    -0.934616164776E+03   -0.72419E-05   -0.74865E-07  2328   0.139E-03    0.342E-03
DAV:  18    -0.934616180175E+03   -0.15399E-04   -0.60479E-07  2416   0.109E-03    0.133E-03
DAV:  19    -0.934616217794E+03   -0.37619E-04   -0.39482E-06  3032   0.159E-03    0.312E-03
DAV:  20    -0.934616221824E+03   -0.40296E-05   -0.46628E-07  2320   0.890E-04
  36 F= -.10081452E+04 E0= -.10080921E+04  d E =-.203995E+00
 curvature:  -3.47 expect dE=-0.134E+01 dE for cont linesearch -0.124E+00
 ZBRENT: increasing intervall
 opt :   1.3846  next Energy= -1008.399547 (dE=-0.458E+00)
 bond charge predicted
       N       E                     dE             d eps       ncg     rms          rms(c)
DAV:   1    -0.933795481629E+03    0.82074E+00   -0.18985E+02  4144   0.202E+01    0.937E+00
DAV:   2    -0.934911026091E+03   -0.11155E+01   -0.12130E+01  4416   0.443E+00    0.460E+00
DAV:   3    -0.934932876976E+03   -0.21851E-01   -0.63706E-01  5024   0.194E+00    0.294E+00
DAV:   4    -0.934844658847E+03    0.88218E-01   -0.18672E-01  4896   0.122E+00    0.248E+00
DAV:   5    -0.934820379804E+03    0.24279E-01   -0.68787E-02  5416   0.670E-01    0.179E+00
DAV:   6    -0.934808720613E+03    0.11659E-01   -0.60720E-02  4864   0.404E-01    0.141E+00
DAV:   7    -0.934809389425E+03   -0.66881E-03   -0.13458E-02  5824   0.271E-01    0.121E+00
DAV:   8    -0.934806394585E+03    0.29948E-02   -0.14630E-02  4920   0.266E-01    0.307E-01
DAV:   9    -0.934807503878E+03   -0.11093E-02   -0.21855E-02  4712   0.171E-01    0.263E-01
DAV:  10    -0.934807618448E+03   -0.11457E-03   -0.21008E-03  5272   0.510E-02    0.278E-01
DAV:  11    -0.934807649409E+03   -0.30962E-04   -0.17226E-04  6016   0.310E-02    0.269E-01
DAV:  12    -0.934807535632E+03    0.11378E-03   -0.28572E-03  6680   0.109E-01    0.177E-01
DAV:  13    -0.934808026953E+03   -0.49132E-03   -0.32094E-03  4472   0.530E-02    0.252E-01
DAV:  14    -0.934808297679E+03   -0.27073E-03   -0.43506E-04  6512   0.299E-02    0.284E-01
DAV:  15    -0.934808401564E+03   -0.10388E-03   -0.31540E-04  5160   0.255E-02    0.309E-01
DAV:  16    -0.934808107897E+03    0.29367E-03   -0.17341E-04  5544   0.232E-02    0.277E-01
DAV:  17    -0.934808116272E+03   -0.83752E-05   -0.66010E-05  4144   0.849E-03    0.265E-01
DAV:  18    -0.934808063331E+03    0.52941E-04   -0.24668E-06  2400   0.418E-03    0.261E-01
DAV:  19    -0.934808001773E+03    0.61558E-04   -0.15894E-05  3520   0.508E-03    0.249E-01
DAV:  20    -0.934807789377E+03    0.21240E-03   -0.58273E-05  6080   0.161E-02    0.218E-01
DAV:  21    -0.934807379667E+03    0.40971E-03   -0.86836E-04  6792   0.601E-02    0.122E-01
DAV:  22    -0.934807494349E+03   -0.11468E-03   -0.73960E-04  4296   0.252E-02    0.736E-02
DAV:  23    -0.934807513853E+03   -0.19504E-04   -0.18154E-05  4456   0.796E-03    0.660E-02
DAV:  24    -0.934807569261E+03   -0.55408E-04   -0.23853E-05  3992   0.673E-03    0.599E-02
DAV:  25    -0.934807594548E+03   -0.25287E-04   -0.15137E-05  3824   0.814E-03    0.537E-02
DAV:  26    -0.934807609081E+03   -0.14533E-04   -0.61742E-05  4936   0.946E-03    0.441E-02
DAV:  27    -0.934807624260E+03   -0.15179E-04   -0.90559E-06  3048   0.571E-03    0.434E-02
DAV:  28    -0.934807648059E+03   -0.23799E-04   -0.17370E-05  3880   0.687E-03    0.516E-02
DAV:  29    -0.934807660987E+03   -0.12928E-04   -0.13362E-05  3456   0.387E-03    0.606E-02
DAV:  30    -0.934807670568E+03   -0.95811E-05   -0.14010E-06  2368   0.194E-03    0.633E-02
DAV:  31    -0.934807678906E+03   -0.83380E-05   -0.20241E-06  2328   0.185E-03    0.668E-02
DAV:  32    -0.934807684458E+03   -0.55512E-05   -0.17404E-06  2312   0.173E-03    0.696E-02
DAV:  33    -0.934807686400E+03   -0.19426E-05   -0.11711E-06  2168   0.126E-03
  37 F= -.10083937E+04 E0= -.10083387E+04  d E =-.452532E+00
 curvature:  -7.11 expect dE=-0.291E+01 dE for cont linesearch -0.139E+00
 ZBRENT: increasing intervall
 opt :   3.0461  next Energy= -1008.665856 (dE=-0.725E+00)
 bond charge predicted
       N       E                     dE             d eps       ncg     rms          rms(c)
DAV:   1    -0.930052761159E+03    0.47549E+01   -0.71419E+02  4232   0.411E+01    0.319E+01
DAV:   2    -0.935625436801E+03   -0.55727E+01   -0.64437E+01  4608   0.985E+00    0.140E+01
DAV:   3    -0.935850934866E+03   -0.22550E+00   -0.62662E+00  4952   0.467E+00    0.100E+01
DAV:   4    -0.935185452598E+03    0.66548E+00   -0.12173E+00  4952   0.238E+00    0.886E+00
DAV:   5    -0.935019968487E+03    0.16548E+00   -0.57468E-01  6360   0.176E+00    0.645E+00
DAV:   6    -0.935011622242E+03    0.83462E-02   -0.74555E-01  4864   0.112E+00    0.502E+00
DAV:   7    -0.934998195071E+03    0.13427E-01   -0.88632E-02  5616   0.716E-01    0.506E+00
DAV:   8    -0.934992096516E+03    0.60986E-02   -0.34642E-02  4984   0.477E-01    0.211E+00
DAV:   9    -0.934994972156E+03   -0.28756E-02   -0.94066E-02  4960   0.417E-01    0.398E-01
DAV:  10    -0.934993070303E+03    0.19019E-02   -0.13570E-02  4720   0.176E-01    0.328E-01
DAV:  11    -0.934992842885E+03    0.22742E-03   -0.37242E-03  5376   0.764E-02    0.243E-01
DAV:  12    -0.934992492472E+03    0.35041E-03   -0.10174E-03  6736   0.433E-02    0.221E-01
DAV:  13    -0.934992454555E+03    0.37917E-04   -0.77418E-04  5152   0.489E-02    0.117E-01
DAV:  14    -0.934992597820E+03   -0.14326E-03   -0.11270E-03  4960   0.338E-02    0.809E-02
DAV:  15    -0.934992680238E+03   -0.82419E-04   -0.23928E-04  5896   0.230E-02    0.505E-02
DAV:  16    -0.934992846358E+03   -0.16612E-03   -0.24041E-04  5304   0.194E-02    0.552E-02
DAV:  17    -0.934992973818E+03   -0.12746E-03   -0.26465E-05  4368   0.689E-03    0.524E-02
DAV:  18    -0.934993096978E+03   -0.12316E-03   -0.22341E-05  3936   0.604E-03    0.400E-02
DAV:  19    -0.934993223154E+03   -0.12618E-03   -0.44060E-05  4800   0.996E-03    0.198E-02
DAV:  20    -0.934993300862E+03   -0.77708E-04   -0.31685E-05  4584   0.684E-03    0.113E-02
DAV:  21    -0.934993353150E+03   -0.52288E-04   -0.22688E-05  4376   0.697E-03    0.198E-02
DAV:  22    -0.934993411783E+03   -0.58632E-04   -0.55221E-06  3280   0.438E-03    0.182E-02
DAV:  23    -0.934993456629E+03   -0.44847E-04   -0.11824E-05  3784   0.509E-03    0.966E-03
DAV:  24    -0.934993473470E+03   -0.16841E-04   -0.52458E-06  2936   0.236E-03    0.452E-03
DAV:  25    -0.934993488437E+03   -0.14967E-04   -0.83173E-07  2584   0.155E-03    0.527E-03
DAV:  26    -0.934993504896E+03   -0.16460E-04   -0.11144E-06  2512   0.143E-03    0.434E-03
DAV:  27    -0.934993513509E+03   -0.86129E-05   -0.77689E-07  2544   0.118E-03    0.365E-03
DAV:  28    -0.934993515034E+03   -0.15246E-05   -0.59057E-07  2320   0.113E-03
  38 F= -.10086934E+04 E0= -.10086333E+04  d E =-.752163E+00
 curvature: -13.97 expect dE=-0.843E+01 dE for cont linesearch -0.237E-01
 trial: gam= 0.59520 g(F)=  0.604E+00 g(S)=  0.000E+00 ort = 0.748E-01 (trialstep = 0.720E+00)
 search vector abs. value=  0.186E+01
 bond charge predicted
       N       E                     dE             d eps       ncg     rms          rms(c)
DAV:   1    -0.934931950439E+03    0.61563E-01   -0.83263E+01  4392   0.136E+01    0.703E+00
DAV:   2    -0.935431261453E+03   -0.49931E+00   -0.56176E+00  4576   0.286E+00    0.289E+00
DAV:   3    -0.935479876571E+03   -0.48615E-01   -0.20486E-01  5160   0.142E+00    0.188E+00
DAV:   4    -0.935401466524E+03    0.78410E-01   -0.10894E-01  5048   0.953E-01    0.145E+00
DAV:   5    -0.935392186032E+03    0.92805E-02   -0.44127E-02  5192   0.470E-01    0.936E-01
DAV:   6    -0.935385162779E+03    0.70233E-02   -0.26929E-02  4848   0.268E-01    0.746E-01
DAV:   7    -0.935385064497E+03    0.98282E-04   -0.43972E-03  5576   0.157E-01    0.634E-01
DAV:   8    -0.935384545862E+03    0.51864E-03   -0.55074E-03  5008   0.113E-01    0.228E-01
DAV:   9    -0.935384110663E+03    0.43520E-03   -0.36119E-03  4944   0.109E-01    0.603E-02
DAV:  10    -0.935384255404E+03   -0.14474E-03   -0.18193E-03  4792   0.439E-02    0.937E-02
DAV:  11    -0.935384253995E+03    0.14089E-05   -0.86449E-05  5240   0.180E-02    0.706E-02
DAV:  12    -0.935384320450E+03   -0.66455E-04   -0.36850E-04  5608   0.319E-02    0.238E-02
DAV:  13    -0.935384398166E+03   -0.77716E-04   -0.19956E-04  4872   0.150E-02    0.419E-02
DAV:  14    -0.935384411454E+03   -0.13287E-04   -0.21810E-05  3840   0.579E-03    0.395E-02
DAV:  15    -0.935384412903E+03   -0.14496E-05   -0.85679E-06  2888   0.760E-03
  39 F= -.10091154E+04 E0= -.10090539E+04  d E =-.422071E+00
 ZBRENT: can't locate minimum, use default step
 trial-energy change:   -0.422071  1 .order   -0.422229   -0.466715   -0.377742
 step:   2.8800(harm=  3.7768)  dis= 0.18147  next Energy= -1009.917450 (dE=-0.122E+01)
 bond charge predicted
       N       E                     dE             d eps       ncg     rms          rms(c)
DAV:   1    -0.930014766229E+03    0.53696E+01   -0.71348E+02  4464   0.420E+01    0.400E+01
DAV:   2    -0.936423363125E+03   -0.64086E+01   -0.73210E+01  4776   0.941E+00    0.158E+01
DAV:   3    -0.936941098559E+03   -0.51774E+00   -0.49558E+00  5136   0.506E+00    0.107E+01
DAV:   4    -0.935938363999E+03    0.10027E+01   -0.14110E+00  5216   0.286E+00    0.944E+00
DAV:   5    -0.935757653253E+03    0.18071E+00   -0.81469E-01  5552   0.228E+00    0.578E+00
DAV:   6    -0.935758969006E+03   -0.13158E-02   -0.13137E+00  4928   0.142E+00    0.486E+00
DAV:   7    -0.935723370239E+03    0.35599E-01   -0.10234E-01  5472   0.833E-01    0.505E+00
DAV:   8    -0.935747791702E+03   -0.24421E-01   -0.25051E-01  5752   0.682E-01    0.463E+00
DAV:   9    -0.935721853850E+03    0.25938E-01   -0.88440E-02  4968   0.732E-01    0.846E-01
DAV:  10    -0.935723883279E+03   -0.20294E-02   -0.11856E-01  4864   0.385E-01    0.415E-01
DAV:  11    -0.935722217204E+03    0.16661E-02   -0.57951E-03  5112   0.178E-01    0.263E-01
DAV:  12    -0.935722641759E+03   -0.42456E-03   -0.12002E-02  4888   0.130E-01    0.182E-01
DAV:  13    -0.935722946168E+03   -0.30441E-03   -0.20133E-03  5160   0.667E-02    0.195E-01
DAV:  14    -0.935723307272E+03   -0.36110E-03   -0.29112E-04  5840   0.510E-02    0.143E-01
DAV:  15    -0.935723738720E+03   -0.43145E-03   -0.10258E-03  4832   0.400E-02    0.174E-01
DAV:  16    -0.935723624184E+03    0.11454E-03   -0.15638E-04  4984   0.317E-02    0.153E-01
DAV:  17    -0.935723727106E+03   -0.10292E-03   -0.33777E-04  5224   0.240E-02    0.104E-01
DAV:  18    -0.935723885209E+03   -0.15810E-03   -0.21498E-04  5640   0.188E-02    0.640E-02
DAV:  19    -0.935724008239E+03   -0.12303E-03   -0.48967E-04  6144   0.457E-02    0.352E-02
DAV:  20    -0.935724151426E+03   -0.14319E-03   -0.65728E-04  4952   0.236E-02    0.753E-02
DAV:  21    -0.935724309043E+03   -0.15762E-03   -0.86906E-05  5704   0.131E-02    0.862E-02
DAV:  22    -0.935724443182E+03   -0.13414E-03   -0.28824E-05  3992   0.952E-03    0.750E-02
DAV:  23    -0.935724445687E+03   -0.25052E-05   -0.36988E-05  4960   0.121E-02
  40 F= -.10095501E+04 E0= -.10094836E+04  d E =-.856707E+00
 curvature:  -4.96 expect dE=-0.286E+01 dE for cont linesearch -0.215E+00
 ZBRENT: interpolating
 opt :   2.1205  next Energy= -1009.658087 (dE=-0.965E+00)
