<?xml version="1.0" encoding="ISO-8859-1"?>
<modeling>
 <generator>
  <i name="program" type="string">vasp </i>
  <i name="version" type="string">6.2.1  </i>
  <i name="subversion" type="string">16May21 (build Jun 16 2021 03:23:30) complex                          parallel </i>
  <i name="platform" type="string">LinuxPGI </i>
  <i name="date" type="string">2022 04 25 </i>
  <i name="time" type="string">11:32:38 </i>
 </generator>
 <incar>
  <i type="string" name="SYSTEM">NiAl</i>
  <i type="int" name="ISTART">     0</i>
  <i type="int" name="NELMIN">     6</i>
  <i type="int" name="IBRION">     2</i>
  <i name="EDIFF">      0.00000500</i>
  <i type="int" name="NSW">    40</i>
  <i type="int" name="ISIF">     1</i>
  <i name="ENCUT">    360.00000000</i>
  <i name="POTIM">      0.20000000</i>
  <i type="string" name="LREAL">Auto</i>
  <i type="logical" name="LPLANE"> T  </i>
  <i type="int" name="ISMEAR">     0</i>
  <i name="SIGMA">      0.05000000</i>
  <i type="logical" name="LWAVE"> F  </i>
  <i type="logical" name="LCHARG"> F  </i>
  <i type="int" name="IVDW">    12</i>
 </incar>
 <primitive_cell>
  <structure name="primitive_cell" >
   <crystal>
    <varray name="basis" >
     <v>       0.00000000     -17.18057346       0.00000000 </v>
     <v>       0.00000000      -8.59028673     -14.87881307 </v>
     <v>      30.00000000       0.00000000       0.00000000 </v>
    </varray>
    <i name="volume">   7668.79622957 </i>
    <varray name="rec_basis" >
     <v>       0.00000000      -0.05820527       0.03360483 </v>
     <v>       0.00000000       0.00000000      -0.06720966 </v>
     <v>       0.03333333       0.00000000       0.00000000 </v>
    </varray>
   </crystal>
   <varray name="positions" >
    <v>       0.44647042       0.61313695       0.54813167 </v>
    <v>       0.61676438       0.44161789       0.54274033 </v>
    <v>       0.77933134       0.27645418       0.54457700 </v>
    <v>       0.94446263       0.11112916       0.54455700 </v>
    <v>       0.94469853       0.27765051       0.54439633 </v>
    <v>       0.94446231       0.44440843       0.54455703 </v>
    <v>       0.77756522       0.61141772       0.54477170 </v>
    <v>       0.61066527       0.77733149       0.54505137 </v>
    <v>       0.44475100       0.94423190       0.54477170 </v>
    <v>       0.61108088       0.94445975       0.54423703 </v>
    <v>       0.77779301       0.94445975       0.54423703 </v>
    <v>       0.94533687       0.77733149       0.54505140 </v>
    <v>       0.94435069       0.61141772       0.54477170 </v>
    <v>       0.83338994       0.66655317       0.46628503 </v>
    <v>       0.66659154       0.83325800       0.46624437 </v>
    <v>       0.72222214       0.88888878       0.38989003 </v>
    <v>       0.88918804       0.72203871       0.38970437 </v>
    <v>       0.94436763       0.77781601       0.31176303 </v>
    <v>       0.77772874       0.94439516       0.31179437 </v>
    <v>       0.94460836       0.94455377       0.31170337 </v>
    <v>       0.88918767       0.88877311       0.38970437 </v>
    <v>       0.83348356       0.83325793       0.46624437 </v>
    <v>       0.77779271       0.77774752       0.54423703 </v>
    <v>       0.77933153       0.44421420       0.54457700 </v>
    <v>       0.66769054       0.50002913       0.46598200 </v>
    <v>       0.83412399       0.33293785       0.46617733 </v>
    <v>       0.88871778       0.38906605       0.38961200 </v>
    <v>       0.72184811       0.55574460       0.38955770 </v>
    <v>       0.77788688       0.61083844       0.31170337 </v>
    <v>       0.61114991       0.77781608       0.31176303 </v>
    <v>       0.66677775       0.83344424       0.23383837 </v>
    <v>       0.83310763       0.66711780       0.23388603 </v>
    <v>       0.88886298       0.72238034       0.15701270 </v>
    <v>       0.72222205       0.88888885       0.15674603 </v>
    <v>       0.77790746       0.94457414       0.07850070 </v>
    <v>       0.94462679       0.77768650       0.07892070 </v>
    <v>       0.94437139       0.94434764       0.07907270 </v>
    <v>       0.88886298       0.88875651       0.15701270 </v>
    <v>       0.83311096       0.83344424       0.23383837 </v>
    <v>       0.77772849       0.77787596       0.31179433 </v>
    <v>       0.72210616       0.72203878       0.38970433 </v>
    <v>       0.66652204       0.66692618       0.46661397 </v>
    <v>       0.55530926       0.72197560       0.38993563 </v>
    <v>       0.50025968       0.83318871       0.46661397 </v>
    <v>       0.33336245       0.83435748       0.46598197 </v>
    <v>       0.27495109       0.78343131       0.54274027 </v>
    <v>       0.10978752       0.94599804       0.54457697 </v>
    <v>       0.27754735       0.94599804       0.54457697 </v>
    <v>       0.44336860       0.77829185       0.54522563 </v>
    <v>       0.49955860       0.66622512       0.46701230 </v>
    <v>       0.61162511       0.61003515       0.54522563 </v>
    <v>       0.61120903       0.94439529       0.31179433 </v>
    <v>       0.44417142       0.94455384       0.31170333 </v>
    <v>       0.38907810       0.88851436       0.38955763 </v>
    <v>       0.38887251       0.72177861       0.38999097 </v>
    <v>       0.22268194       0.72177854       0.38999097 </v>
    <v>       0.05574060       0.88851429       0.38955763 </v>
    <v>       0.99988468       0.83318864       0.46661397 </v>
    <v>       0.16754934       0.66622505       0.46701230 </v>
    <v>       0.27372584       0.61313681       0.54813163 </v>
    <v>       0.11167277       0.61003502       0.54522560 </v>
    <v>       0.27495100       0.44161775       0.54274027 </v>
    <v>       0.44336913       0.27833927       0.54522560 </v>
    <v>       0.61066523       0.11200349       0.54505127 </v>
    <v>       0.66652232       0.16655152       0.46661393 </v>
    <v>       0.83339018       0.00005713       0.46628493 </v>
    <v>       0.88885516       0.05552197       0.38959593 </v>
    <v>       0.72184793       0.22240685       0.38955760 </v>
    <v>       0.77749466       0.27796579       0.31171260 </v>
    <v>       0.61055419       0.44472297       0.31197627 </v>
    <v>       0.66615318       0.50009103       0.23391593 </v>
    <v>       0.49974106       0.66640732       0.23375593 </v>
    <v>       0.55547826       0.72214504       0.15730260 </v>
    <v>       0.38881138       0.88887668       0.15724227 </v>
    <v>       0.33342410       0.83281979       0.23391593 </v>
    <v>       0.27805654       0.77722053       0.31197627 </v>
    <v>       0.11129902       0.94416127       0.31171260 </v>
    <v>       0.27787259       0.94416133       0.31171260 </v>
    <v>       0.22221603       0.88890155       0.38954527 </v>
    <v>       0.16561310       0.83435748       0.46598193 </v>
    <v>       0.11167251       0.77829185       0.54522560 </v>
    <v>       0.94460768       0.61083844       0.31170333 </v>
    <v>       0.94455295       0.44422703       0.31183900 </v>
    <v>       0.94442060       0.27778963       0.31193897 </v>
    <v>       0.94455283       0.11121989       0.31183893 </v>
    <v>       0.83333552       0.16676263       0.23394127 </v>
    <v>       0.66658932       0.16664569       0.23403587 </v>
    <v>       0.49974140       0.33385116       0.23375590 </v>
    <v>       0.55518945       0.38928710       0.15703123 </v>
    <v>       0.38888911       0.55555574       0.15689827 </v>
    <v>       0.44428755       0.61095472       0.07849263 </v>
    <v>       0.61116739       0.44441657       0.07848860 </v>
    <v>       0.77791516       0.27773734       0.07896227 </v>
    <v>       0.72221023       0.22231216       0.15724223 </v>
    <v>       0.72209020       0.05552997       0.15701253 </v>
    <v>       0.88897740       0.05564429       0.15723557 </v>
    <v>       0.83310787       0.99977418       0.23388587 </v>
    <v>       0.77788709       0.11127494       0.31170323 </v>
    <v>       0.61115009       0.11103366       0.31176287 </v>
    <v>       0.55537222       0.05585446       0.38970417 </v>
    <v>       0.49988611       0.00005693       0.46628480 </v>
    <v>       0.33361572       0.16645528       0.46644947 </v>
    <v>       0.16627138       0.33293758       0.46617713 </v>
    <v>       0.99978866       0.50028224       0.46644947 </v>
    <v>       0.05574051       0.55574433       0.38955747 </v>
    <v>       0.22221596       0.38888230       0.38954517 </v>
    <v>       0.27805602       0.44472277       0.31197617 </v>
    <v>       0.11153985       0.61107139       0.31175613 </v>
    <v>       0.16718468       0.66640712       0.23375580 </v>
    <v>       0.99997910       0.83325578       0.23403580 </v>
    <v>       0.05564501       0.88887648       0.15724213 </v>
    <v>       0.22262062       0.72185577       0.15703117 </v>
    <v>       0.27774979       0.77783402       0.07848850 </v>
    <v>       0.11107074       0.94458187       0.07896217 </v>
    <v>       0.27768042       0.94458187       0.07896217 </v>
    <v>       0.44461397       0.94434730       0.07907253 </v>
    <v>       0.61102037       0.77768623       0.07892053 </v>
    <v>       0.77768087       0.61128048       0.07907257 </v>
    <v>       0.72221020       0.55547757       0.15724220 </v>
    <v>       0.83333518       0.49990191       0.23394123 </v>
    <v>       0.88893830       0.38871091       0.15711390 </v>
    <v>       0.83335154       0.33332410       0.23389453 </v>
    <v>       0.72200796       0.38899588       0.15715187 </v>
    <v>       0.66615301       0.33375559       0.23391587 </v>
    <v>       0.61072178       0.27820673       0.31175617 </v>
    <v>       0.55530915       0.22271508       0.38993547 </v>
    <v>       0.44440428       0.27820673       0.31175613 </v>
    <v>       0.38887225       0.38934866       0.38999080 </v>
    <v>       0.49955895       0.33421523       0.46701213 </v>
    <v>       0.33309298       0.49975929       0.46655580 </v>
    <v>       0.38888884       0.55555547       0.38914117 </v>
    <v>       0.44443520       0.61110224       0.31202187 </v>
    <v>       0.27779524       0.61110224       0.31202180 </v>
    <v>       0.33346324       0.50012968       0.23392380 </v>
    <v>       0.16708902       0.50009063       0.23391577 </v>
    <v>       0.00009589       0.49990177       0.23394103 </v>
    <v>       0.16665739       0.33332397       0.23389437 </v>
    <v>       0.22232922       0.38899581       0.15715173 </v>
    <v>       0.38881110       0.22231182       0.15724210 </v>
    <v>       0.55571389       0.05552977       0.15701243 </v>
    <v>       0.50045135       0.99977391       0.23388573 </v>
    <v>       0.33323580       0.16676229       0.23394107 </v>
    <v>       0.27787278       0.27796538       0.31171240 </v>
    <v>       0.11112300       0.27778923       0.31193867 </v>
    <v>       0.05555560       0.22222156       0.38949930 </v>
    <v>       0.00003566       0.16670228       0.46621327 </v>
    <v>       0.16627146       0.00078985       0.46617693 </v>
    <v>       0.22239965       0.05538365       0.38961167 </v>
    <v>       0.27756057       0.11121949       0.31183870 </v>
    <v>       0.38895613       0.05552150       0.38959573 </v>
    <v>       0.38907830       0.22240652       0.38955743 </v>
    <v>       0.50025917       0.16655132       0.46661380 </v>
    <v>       0.44475103       0.11101658       0.54477143 </v>
    <v>       0.27774129       0.11112869       0.54455670 </v>
    <v>       0.11098393       0.27765004       0.54439600 </v>
    <v>       0.27754742       0.27645377       0.54457673 </v>
    <v>       0.10978712       0.44421373       0.54457673 </v>
    <v>       0.16561323       0.50002880       0.46598177 </v>
    <v>       0.33336230       0.33227953       0.46598177 </v>
    <v>       0.49974012       0.50012988       0.23392397 </v>
    <v>       0.44443589       0.44446207       0.31202193 </v>
    <v>       0.72210653       0.05585446       0.38970420 </v>
    <v>       0.66659178       0.00015028       0.46624420 </v>
    <v>       0.83326199       0.50028251       0.46644963 </v>
    <v>       0.88885496       0.55562302       0.38959600 </v>
    <v>       0.44416718       0.77780653       0.07915597 </v>
    <v>       0.38885698       0.72185590       0.15703123 </v>
    <v>       0.33346313       0.66640665       0.23392387 </v>
    <v>       0.16708879       0.83281979       0.23391573 </v>
    <v>       0.11153913       0.77738869       0.31175600 </v>
    <v>       0.05604740       0.72197573       0.38993530 </v>
    <v>       0.99988377       0.66692638       0.46661357 </v>
    <v>       0.61113950       0.61083421       0.07915607 </v>
    <v>       0.55518924       0.55552341       0.15703137 </v>
    <v>       0.22232947       0.88867431       0.15715180 </v>
    <v>       0.77791523       0.44434714       0.07896253 </v>
    <v>       0.94442801       0.44447692       0.07888800 </v>
    <v>       0.94437144       0.61128055       0.07907300 </v>
    <v>       0.88897708       0.55537831       0.15723597 </v>
    <v>       0.72208951       0.72238020       0.15701283 </v>
    <v>       0.66658892       0.66676495       0.23403613 </v>
    <v>       0.61072104       0.61107173       0.31175643 </v>
    <v>       0.55511101       0.55553914       0.38999103 </v>
    <v>       0.50047935       0.49975989       0.46655600 </v>
    <v>       0.55511109       0.38934907       0.38999103 </v>
    <v>       0.72223451       0.38888270       0.38954550 </v>
    <v>       0.66768973       0.33228013       0.46598210 </v>
    <v>       0.61162410       0.27833974       0.54522573 </v>
    <v>       0.77756380       0.11101726       0.54477187 </v>
    <v>       0.83326097       0.16645575       0.46644990 </v>
    <v>       0.88871658       0.22221685       0.38961227 </v>
    <v>       0.94435766       0.27782109       0.07863630 </v>
    <v>       0.94442850       0.11109475       0.07888793 </v>
    <v>       0.88893848       0.22235033       0.15711423 </v>
    <v>       0.50009816       0.83325598       0.23403603 </v>
    <v>       0.44440404       0.77738869       0.31175633 </v>
    <v>       0.77790761       0.77751760       0.07850090 </v>
    <v>       0.61085136       0.94457387       0.07850077 </v>
    <v>       0.55571326       0.88875631       0.15701273 </v>
    <v>       0.77768183       0.11103823       0.07907267 </v>
    <v>       0.61102103       0.11129295       0.07892033 </v>
    <v>       0.44416832       0.27802594       0.07915537 </v>
    <v>       0.27775011       0.44441623       0.07848777 </v>
    <v>       0.11135997       0.61083407       0.07915480 </v>
    <v>       0.05564524       0.55547771       0.15724100 </v>
    <v>       0.05570985       0.72214490       0.15730137 </v>
    <v>       0.99997833       0.66676508       0.23403457 </v>
    <v>       0.61114001       0.27802601       0.07915570 </v>
    <v>       0.55547867       0.22237661       0.15730227 </v>
    <v>       0.50009777       0.16664595       0.23403547 </v>
    <v>       0.44417008       0.11127548       0.31170267 </v>
    <v>       0.38885682       0.38928710       0.15703063 </v>
    <v>       0.33342384       0.33375606       0.23391517 </v>
    <v>       0.44428858       0.44475772       0.07849207 </v>
    <v>       0.27809169       0.61095438       0.07849180 </v>
    <v>       0.22262034       0.55552348       0.15703033 </v>
    <v>       0.11135996       0.77780640       0.07915483 </v>
    <v>       0.66677737       0.99977841       0.23383807 </v>
    <v>       0.77749393       0.44453922       0.31171240 </v>
    <v>       0.11129962       0.44453949       0.31171260 </v>
    <v>       0.05555034       0.38906632       0.38961210 </v>
    <v>       0.00003705       0.33326146       0.46621397 </v>
    <v>       0.16661913       0.16672654       0.46623047 </v>
    <v>       0.11100844       0.11138933       0.54441333 </v>
    <v>       0.55537212       0.88877318       0.38970433 </v>
    <v>       0.22268253       0.55553820       0.38999077 </v>
    <v>       0.22239932       0.22221658       0.38961190 </v>
    <v>       0.33309350       0.66714730       0.46655623 </v>
    <v>       0.33361674       0.99992795       0.46644957 </v>
    <v>       0.44646926       0.44039299       0.54813160 </v>
    <v>       0.11107146       0.44434694       0.07896110 </v>
    <v>       0.11115508       0.27782088       0.07863473 </v>
    <v>       0.05555587       0.22222196       0.15691797 </v>
    <v>       0.00011505       0.16678226       0.23395320 </v>
    <v>       0.16665724       0.00001828       0.23389347 </v>
    <v>       0.22204425       0.05560517       0.15711293 </v>
    <v>       0.27781057       0.11109455       0.07888670 </v>
    <v>       0.38871183       0.05564422       0.15723490 </v>
    <v>       0.33323480       0.00000222       0.23394047 </v>
    <v>       0.16643546       0.16678226       0.23395350 </v>
    <v>       0.11112230       0.11108722       0.31193773 </v>
    <v>       0.05554805       0.05538473       0.38961060 </v>
    <v>       0.99978668       0.99992956       0.46644813 </v>
    <v>       0.27768160       0.27773694       0.07896140 </v>
    <v>       0.22204433       0.22235033       0.15711293 </v>
    <v>       0.05568395       0.38871098       0.15711267 </v>
    <v>       0.00011506       0.33310265       0.23395323 </v>
    <v>       0.44461440       0.11103816       0.07907200 </v>
    <v>       0.11115527       0.11102398       0.07863473 </v>
    <v>       0.05568368       0.05560517       0.15711263 </v>
    <v>       0.00009584       0.00000215       0.23393987 </v>
    <v>       0.94435015       0.94423190       0.54477173 </v>
    <v>       0.38888905       0.55555574       0.57152667 </v>
    <v>       0.38795474       0.52952833       0.60490343 </v>
   </varray>
  </structure>
  <varray name="primitive_index" >
   <v type="int" >        1 </v>
   <v type="int" >        2 </v>
   <v type="int" >        3 </v>
   <v type="int" >        4 </v>
   <v type="int" >        5 </v>
   <v type="int" >        6 </v>
   <v type="int" >        7 </v>
   <v type="int" >        8 </v>
   <v type="int" >        9 </v>
   <v type="int" >       10 </v>
   <v type="int" >       11 </v>
   <v type="int" >       12 </v>
   <v type="int" >       13 </v>
   <v type="int" >       14 </v>
   <v type="int" >       15 </v>
   <v type="int" >       16 </v>
   <v type="int" >       17 </v>
   <v type="int" >       18 </v>
   <v type="int" >       19 </v>
   <v type="int" >       20 </v>
   <v type="int" >       21 </v>
   <v type="int" >       22 </v>
   <v type="int" >       23 </v>
   <v type="int" >       24 </v>
   <v type="int" >       25 </v>
   <v type="int" >       26 </v>
   <v type="int" >       27 </v>
   <v type="int" >       28 </v>
   <v type="int" >       29 </v>
   <v type="int" >       30 </v>
   <v type="int" >       31 </v>
   <v type="int" >       32 </v>
   <v type="int" >       33 </v>
   <v type="int" >       34 </v>
   <v type="int" >       35 </v>
   <v type="int" >       36 </v>
   <v type="int" >       37 </v>
   <v type="int" >       38 </v>
   <v type="int" >       39 </v>
   <v type="int" >       40 </v>
   <v type="int" >       41 </v>
   <v type="int" >       42 </v>
   <v type="int" >       43 </v>
   <v type="int" >       44 </v>
   <v type="int" >       45 </v>
   <v type="int" >       46 </v>
   <v type="int" >       47 </v>
   <v type="int" >       48 </v>
   <v type="int" >       49 </v>
   <v type="int" >       50 </v>
   <v type="int" >       51 </v>
   <v type="int" >       52 </v>
   <v type="int" >       53 </v>
   <v type="int" >       54 </v>
   <v type="int" >       55 </v>
   <v type="int" >       56 </v>
   <v type="int" >       57 </v>
   <v type="int" >       58 </v>
   <v type="int" >       59 </v>
   <v type="int" >       60 </v>
   <v type="int" >       61 </v>
   <v type="int" >       62 </v>
   <v type="int" >       63 </v>
   <v type="int" >       64 </v>
   <v type="int" >       65 </v>
   <v type="int" >       66 </v>
   <v type="int" >       67 </v>
   <v type="int" >       68 </v>
   <v type="int" >       69 </v>
   <v type="int" >       70 </v>
   <v type="int" >       71 </v>
   <v type="int" >       72 </v>
   <v type="int" >       73 </v>
   <v type="int" >       74 </v>
   <v type="int" >       75 </v>
   <v type="int" >       76 </v>
   <v type="int" >       77 </v>
   <v type="int" >       78 </v>
   <v type="int" >       79 </v>
   <v type="int" >       80 </v>
   <v type="int" >       81 </v>
   <v type="int" >       82 </v>
   <v type="int" >       83 </v>
   <v type="int" >       84 </v>
   <v type="int" >       85 </v>
   <v type="int" >       86 </v>
   <v type="int" >       87 </v>
   <v type="int" >       88 </v>
   <v type="int" >       89 </v>
   <v type="int" >       90 </v>
   <v type="int" >       91 </v>
   <v type="int" >       92 </v>
   <v type="int" >       93 </v>
   <v type="int" >       94 </v>
   <v type="int" >       95 </v>
   <v type="int" >       96 </v>
   <v type="int" >       97 </v>
   <v type="int" >       98 </v>
   <v type="int" >       99 </v>
   <v type="int" >      100 </v>
   <v type="int" >      101 </v>
   <v type="int" >      102 </v>
   <v type="int" >      103 </v>
   <v type="int" >      104 </v>
   <v type="int" >      105 </v>
   <v type="int" >      106 </v>
   <v type="int" >      107 </v>
   <v type="int" >      108 </v>
   <v type="int" >      109 </v>
   <v type="int" >      110 </v>
   <v type="int" >      111 </v>
   <v type="int" >      112 </v>
   <v type="int" >      113 </v>
   <v type="int" >      114 </v>
   <v type="int" >      115 </v>
   <v type="int" >      116 </v>
   <v type="int" >      117 </v>
   <v type="int" >      118 </v>
   <v type="int" >      119 </v>
   <v type="int" >      120 </v>
   <v type="int" >      121 </v>
   <v type="int" >      122 </v>
   <v type="int" >      123 </v>
   <v type="int" >      124 </v>
   <v type="int" >      125 </v>
   <v type="int" >      126 </v>
   <v type="int" >      127 </v>
   <v type="int" >      128 </v>
   <v type="int" >      129 </v>
   <v type="int" >      130 </v>
   <v type="int" >      131 </v>
   <v type="int" >      132 </v>
   <v type="int" >      133 </v>
   <v type="int" >      134 </v>
   <v type="int" >      135 </v>
   <v type="int" >      136 </v>
   <v type="int" >      137 </v>
   <v type="int" >      138 </v>
   <v type="int" >      139 </v>
   <v type="int" >      140 </v>
   <v type="int" >      141 </v>
   <v type="int" >      142 </v>
   <v type="int" >      143 </v>
   <v type="int" >      144 </v>
   <v type="int" >      145 </v>
   <v type="int" >      146 </v>
   <v type="int" >      147 </v>
   <v type="int" >      148 </v>
   <v type="int" >      149 </v>
   <v type="int" >      150 </v>
   <v type="int" >      151 </v>
   <v type="int" >      152 </v>
   <v type="int" >      153 </v>
   <v type="int" >      154 </v>
   <v type="int" >      155 </v>
   <v type="int" >      156 </v>
   <v type="int" >      157 </v>
   <v type="int" >      158 </v>
   <v type="int" >      159 </v>
   <v type="int" >      160 </v>
   <v type="int" >      161 </v>
   <v type="int" >      162 </v>
   <v type="int" >      163 </v>
   <v type="int" >      164 </v>
   <v type="int" >      165 </v>
   <v type="int" >      166 </v>
   <v type="int" >      167 </v>
   <v type="int" >      168 </v>
   <v type="int" >      169 </v>
   <v type="int" >      170 </v>
   <v type="int" >      171 </v>
   <v type="int" >      172 </v>
   <v type="int" >      173 </v>
   <v type="int" >      174 </v>
   <v type="int" >      175 </v>
   <v type="int" >      176 </v>
   <v type="int" >      177 </v>
   <v type="int" >      178 </v>
   <v type="int" >      179 </v>
   <v type="int" >      180 </v>
   <v type="int" >      181 </v>
   <v type="int" >      182 </v>
   <v type="int" >      183 </v>
   <v type="int" >      184 </v>
   <v type="int" >      185 </v>
   <v type="int" >      186 </v>
   <v type="int" >      187 </v>
   <v type="int" >      188 </v>
   <v type="int" >      189 </v>
   <v type="int" >      190 </v>
   <v type="int" >      191 </v>
   <v type="int" >      192 </v>
   <v type="int" >      193 </v>
   <v type="int" >      194 </v>
   <v type="int" >      195 </v>
   <v type="int" >      196 </v>
   <v type="int" >      197 </v>
   <v type="int" >      198 </v>
   <v type="int" >      199 </v>
   <v type="int" >      200 </v>
   <v type="int" >      201 </v>
   <v type="int" >      202 </v>
   <v type="int" >      203 </v>
   <v type="int" >      204 </v>
   <v type="int" >      205 </v>
   <v type="int" >      206 </v>
   <v type="int" >      207 </v>
   <v type="int" >      208 </v>
   <v type="int" >      209 </v>
   <v type="int" >      210 </v>
   <v type="int" >      211 </v>
   <v type="int" >      212 </v>
   <v type="int" >      213 </v>
   <v type="int" >      214 </v>
   <v type="int" >      215 </v>
   <v type="int" >      216 </v>
   <v type="int" >      217 </v>
   <v type="int" >      218 </v>
   <v type="int" >      219 </v>
   <v type="int" >      220 </v>
   <v type="int" >      221 </v>
   <v type="int" >      222 </v>
   <v type="int" >      223 </v>
   <v type="int" >      224 </v>
   <v type="int" >      225 </v>
   <v type="int" >      226 </v>
   <v type="int" >      227 </v>
   <v type="int" >      228 </v>
   <v type="int" >      229 </v>
   <v type="int" >      230 </v>
   <v type="int" >      231 </v>
   <v type="int" >      232 </v>
   <v type="int" >      233 </v>
   <v type="int" >      234 </v>
   <v type="int" >      235 </v>
   <v type="int" >      236 </v>
   <v type="int" >      237 </v>
   <v type="int" >      238 </v>
   <v type="int" >      239 </v>
   <v type="int" >      240 </v>
   <v type="int" >      241 </v>
   <v type="int" >      242 </v>
   <v type="int" >      243 </v>
   <v type="int" >      244 </v>
   <v type="int" >      245 </v>
   <v type="int" >      246 </v>
   <v type="int" >      247 </v>
   <v type="int" >      248 </v>
   <v type="int" >      249 </v>
   <v type="int" >      250 </v>
   <v type="int" >      251 </v>
   <v type="int" >      252 </v>
   <v type="int" >      253 </v>
   <v type="int" >      254 </v>
  </varray>
 </primitive_cell>
 <kpoints>
  <generation param="Gamma">
   <v type="int" name="divisions">       2        2        1 </v>
   <v name="usershift">      0.00000000       0.00000000       0.00000000 </v>
   <v name="genvec1">      0.50000000       0.00000000       0.00000000 </v>
   <v name="genvec2">      0.00000000       0.50000000       0.00000000 </v>
   <v name="genvec3">      0.00000000       0.00000000       1.00000000 </v>
   <v name="shift">      0.00000000       0.00000000       0.00000000 </v>
  </generation>
  <varray name="kpointlist" >
   <v>       0.00000000       0.00000000       0.00000000 </v>
   <v>       0.50000000       0.00000000       0.00000000 </v>
   <v>       0.50000000       0.50000000       0.00000000 </v>
   <v>       0.00000000       0.50000000       0.00000000 </v>
  </varray>
  <varray name="weights" >
   <v>       0.25000000 </v>
   <v>       0.25000000 </v>
   <v>       0.25000000 </v>
   <v>       0.25000000 </v>
  </varray>
 </kpoints>
 <parameters>
  <separator name="general" >
   <i type="string" name="SYSTEM">NiAl</i>
   <i type="logical" name="LCOMPAT"> F  </i>
  </separator>
  <separator name="electronic" >
   <i type="string" name="PREC">normal</i>
   <i name="ENMAX">    360.00000000</i>
   <i name="ENAUG">   1139.60900000</i>
   <i name="EDIFF">      0.00000500</i>
   <i type="int" name="IALGO">    38</i>
   <i type="int" name="IWAVPR">    11</i>
   <i type="int" name="NBANDS">   512</i>
   <i type="int" name="NBANDSLOW">    -1</i>
   <i type="int" name="NBANDSHIGH">    -1</i>
   <i name="NELECT">    768.00000000</i>
   <i type="int" name="TURBO">     0</i>
   <i type="int" name="IRESTART">     0</i>
   <i type="int" name="NREBOOT">     0</i>
   <i type="int" name="NMIN">     0</i>
   <i name="EREF">      0.00000000</i>
   <separator name="electronic smearing" >
    <i type="int" name="ISMEAR">     0</i>
    <i name="SIGMA">      0.05000000</i>
    <i name="KSPACING">      0.50000000</i>
    <i type="logical" name="KGAMMA"> T  </i>
    <i type="logical" name="KBLOWUP"> T  </i>
   </separator>
   <separator name="electronic projectors" >
    <i type="logical" name="LREAL"> T  </i>
    <v name="ROPT">     -0.00050000     -0.00050000</v>
    <i type="int" name="LMAXPAW">  -100</i>
    <i type="int" name="LMAXMIX">     2</i>
    <i type="logical" name="NLSPLINE"> F  </i>
   </separator>
   <separator name="electronic startup" >
    <i type="int" name="ISTART">     0</i>
    <i type="int" name="ICHARG">     2</i>
    <i type="int" name="INIWAV">     1</i>
   </separator>
   <separator name="electronic spin" >
    <i type="int" name="ISPIN">     1</i>
    <i type="logical" name="LNONCOLLINEAR"> F  </i>
    <v name="MAGMOM">      1.00000000      1.00000000      1.00000000      1.00000000      1.00000000      1.00000000      1.00000000      1.00000000      1.00000000      1.00000000      1.00000000      1.00000000      1.00000000      1.00000000      1.00000000      1.00000000      1.00000000      1.00000000      1.00000000      1.00000000
      1.00000000      1.00000000      1.00000000      1.00000000      1.00000000      1.00000000      1.00000000      1.00000000      1.00000000      1.00000000      1.00000000      1.00000000      1.00000000      1.00000000      1.00000000      1.00000000      1.00000000      1.00000000      1.00000000      1.00000000
      1.00000000      1.00000000      1.00000000      1.00000000      1.00000000      1.00000000      1.00000000      1.00000000      1.00000000      1.00000000      1.00000000      1.00000000      1.00000000      1.00000000      1.00000000      1.00000000      1.00000000      1.00000000      1.00000000      1.00000000
      1.00000000      1.00000000      1.00000000      1.00000000      1.00000000      1.00000000      1.00000000      1.00000000      1.00000000      1.00000000      1.00000000      1.00000000      1.00000000      1.00000000      1.00000000      1.00000000      1.00000000      1.00000000      1.00000000      1.00000000
      1.00000000      1.00000000      1.00000000      1.00000000      1.00000000      1.00000000      1.00000000      1.00000000      1.00000000      1.00000000      1.00000000      1.00000000      1.00000000      1.00000000      1.00000000      1.00000000      1.00000000      1.00000000      1.00000000      1.00000000
      1.00000000      1.00000000      1.00000000      1.00000000      1.00000000      1.00000000      1.00000000      1.00000000      1.00000000      1.00000000      1.00000000      1.00000000      1.00000000      1.00000000      1.00000000      1.00000000      1.00000000      1.00000000      1.00000000      1.00000000
      1.00000000      1.00000000      1.00000000      1.00000000      1.00000000      1.00000000      1.00000000      1.00000000      1.00000000      1.00000000      1.00000000      1.00000000      1.00000000      1.00000000      1.00000000      1.00000000      1.00000000      1.00000000      1.00000000      1.00000000
      1.00000000      1.00000000      1.00000000      1.00000000      1.00000000      1.00000000      1.00000000      1.00000000      1.00000000      1.00000000      1.00000000      1.00000000      1.00000000      1.00000000      1.00000000      1.00000000      1.00000000      1.00000000      1.00000000      1.00000000
      1.00000000      1.00000000      1.00000000      1.00000000      1.00000000      1.00000000      1.00000000      1.00000000      1.00000000      1.00000000      1.00000000      1.00000000      1.00000000      1.00000000      1.00000000      1.00000000      1.00000000      1.00000000      1.00000000      1.00000000
      1.00000000      1.00000000      1.00000000      1.00000000      1.00000000      1.00000000      1.00000000      1.00000000      1.00000000      1.00000000      1.00000000      1.00000000      1.00000000      1.00000000      1.00000000      1.00000000      1.00000000      1.00000000      1.00000000      1.00000000
      1.00000000      1.00000000      1.00000000      1.00000000      1.00000000      1.00000000      1.00000000      1.00000000      1.00000000      1.00000000      1.00000000      1.00000000      1.00000000      1.00000000      1.00000000      1.00000000      1.00000000      1.00000000      1.00000000      1.00000000
      1.00000000      1.00000000      1.00000000      1.00000000      1.00000000      1.00000000      1.00000000      1.00000000      1.00000000      1.00000000      1.00000000      1.00000000      1.00000000      1.00000000      1.00000000      1.00000000      1.00000000      1.00000000      1.00000000      1.00000000
      1.00000000      1.00000000      1.00000000      1.00000000      1.00000000      1.00000000      1.00000000      1.00000000      1.00000000      1.00000000      1.00000000      1.00000000      1.00000000      1.00000000</v>
    <i name="NUPDOWN">     -1.00000000</i>
    <i type="logical" name="LSORBIT"> F  </i>
    <v name="SAXIS">      0.00000000      0.00000000      1.00000000</v>
    <i type="logical" name="LSPIRAL"> F  </i>
    <v name="QSPIRAL">      0.00000000      0.00000000      0.00000000</v>
    <i type="logical" name="LZEROZ"> F  </i>
   </separator>
   <separator name="electronic exchange-correlation" >
    <i type="logical" name="LASPH"> F  </i>
    <i type="logical" name="LMETAGGA"> F  </i>
   </separator>
   <separator name="electronic convergence" >
    <i type="int" name="NELM">    60</i>
    <i type="int" name="NELMDL">    -5</i>
    <i type="int" name="NELMIN">     6</i>
    <i name="ENINI">    360.00000000</i>
    <separator name="electronic convergence detail" >
     <i type="logical" name="LDIAG"> T  </i>
     <i type="logical" name="LSUBROT"> F  </i>
     <i name="WEIMIN">      0.00100000</i>
     <i name="EBREAK">      0.00000000</i>
     <i name="DEPER">      0.30000000</i>
     <i type="int" name="NRMM">     4</i>
     <i name="TIME">      0.40000000</i>
    </separator>
   </separator>
   <separator name="electronic mixer" >
    <i name="AMIX">      0.40000000</i>
    <i name="BMIX">      1.00000000</i>
    <i name="AMIN">      0.10000000</i>
    <i name="AMIX_MAG">      1.60000000</i>
    <i name="BMIX_MAG">      1.00000000</i>
    <separator name="electronic mixer details" >
     <i type="int" name="IMIX">     4</i>
     <i type="logical" name="MIXFIRST"> F  </i>
     <i type="int" name="MAXMIX">   -45</i>
     <i name="WC">    100.00000000</i>
     <i type="int" name="INIMIX">     1</i>
     <i type="int" name="MIXPRE">     1</i>
     <i type="int" name="MREMOVE">     5</i>
    </separator>
   </separator>
   <separator name="electronic dipolcorrection" >
    <i type="logical" name="LDIPOL"> F  </i>
    <i type="logical" name="LMONO"> F  </i>
    <i type="int" name="IDIPOL">     0</i>
    <i name="EPSILON">      1.00000000</i>
    <v name="DIPOL">   -100.00000000   -100.00000000   -100.00000000</v>
    <i name="EFIELD">      0.00000000</i>
   </separator>
  </separator>
  <separator name="grids" >
   <i type="int" name="NGX">    80</i>
   <i type="int" name="NGY">    80</i>
   <i type="int" name="NGZ">   140</i>
   <i type="int" name="NGXF">   160</i>
   <i type="int" name="NGYF">   160</i>
   <i type="int" name="NGZF">   280</i>
   <i type="logical" name="ADDGRID"> F  </i>
  </separator>
  <separator name="ionic" >
   <i type="int" name="NSW">    40</i>
   <i type="int" name="IBRION">     2</i>
   <i type="int" name="MDALGO">     0</i>
   <i type="int" name="ISIF">     1</i>
   <i name="PSTRESS">      0.00000000</i>
   <i name="EDIFFG">      0.00005000</i>
   <i type="int" name="NFREE">     1</i>
   <i name="POTIM">      0.20000000</i>
   <i name="SMASS">     -3.00000000</i>
   <i name="SCALEE">      1.00000000</i>
  </separator>
  <separator name="ionic md" >
   <i name="TEBEG">      0.00010000</i>
   <i name="TEEND">      0.00010000</i>
   <i type="int" name="NBLOCK">     1</i>
   <i type="int" name="KBLOCK">    40</i>
   <i type="int" name="NPACO">   256</i>
   <i name="APACO">     16.00000000</i>
  </separator>
  <separator name="symmetry" >
   <i type="int" name="ISYM">     2</i>
   <i name="SYMPREC">      0.00001000</i>
  </separator>
  <separator name="dos" >
   <i type="int" name="LORBIT">     0</i>
   <v name="RWIGS">     -1.00000000     -1.00000000</v>
   <i type="int" name="NEDOS">   301</i>
   <i name="EMIN">     10.00000000</i>
   <i name="EMAX">    -10.00000000</i>
   <i name="EFERMI">      0.00000000</i>
  </separator>
  <separator name="writing" >
   <i type="int" name="NWRITE">     2</i>
   <i type="logical" name="LWAVE"> F  </i>
   <i type="logical" name="LDOWNSAMPLE"> F  </i>
   <i type="logical" name="LCHARG"> F  </i>
   <i type="logical" name="LPARD"> F  </i>
   <i type="logical" name="LVTOT"> F  </i>
   <i type="logical" name="LVHAR"> F  </i>
   <i type="logical" name="LELF"> F  </i>
   <i type="logical" name="LOPTICS"> F  </i>
   <v name="STM">      0.00000000      0.00000000      0.00000000      0.00000000      0.00000000      0.00000000      0.00000000</v>
  </separator>
  <separator name="performance" >
   <i type="int" name="NPAR">     1</i>
   <i type="int" name="NSIM">     4</i>
   <i type="int" name="NBLK">    -1</i>
   <i type="logical" name="LPLANE"> T  </i>
   <i type="logical" name="LSCALAPACK"> T  </i>
   <i type="logical" name="LSCAAWARE"> F  </i>
   <i type="logical" name="LSCALU"> F  </i>
   <i type="logical" name="LASYNC"> F  </i>
   <i type="logical" name="LORBITALREAL"> F  </i>
  </separator>
  <separator name="miscellaneous" >
   <i type="int" name="IDIOT">     3</i>
   <i type="int" name="PHON_NSTRUCT">    -1</i>
   <i type="logical" name="LMUSIC"> F  </i>
   <v name="POMASS">     26.98200000     16.00000000</v>
   <v name="DARWINR">      0.00000000      0.00000000</v>
   <v name="DARWINV">      1.00000000      1.00000000</v>
   <i type="logical" name="LCORR"> T  </i>
  </separator>
  <i type="logical" name="GGA_COMPAT"> T  </i>
  <i type="logical" name="LBERRY"> F  </i>
  <i type="int" name="ICORELEVEL">     0</i>
  <i type="logical" name="LDAU"> F  </i>
  <i type="int" name="I_CONSTRAINED_M">     0</i>
  <separator name="electronic exchange-correlation" >
   <i type="string" name="GGA">--</i>
   <i type="int" name="VOSKOWN">     0</i>
   <i type="logical" name="LHFCALC"> F  </i>
   <i type="string" name="PRECFOCK"></i>
   <i type="logical" name="LSYMGRAD"> F  </i>
   <i type="logical" name="LHFONE"> F  </i>
   <i type="logical" name="LRHFCALC"> F  </i>
   <i type="logical" name="LTHOMAS"> F  </i>
   <i type="logical" name="LMODELHF"> F  </i>
   <i type="logical" name="LFOCKACE"> F  </i>
   <i name="ENCUT4O">     -1.00000000</i>
   <i type="int" name="EXXOEP">     0</i>
   <i type="int" name="FOURORBIT">     0</i>
   <i name="AEXX">      0.00000000</i>
   <i name="HFALPHA">      0.00000000</i>
   <i name="MCALPHA">      0.00000000</i>
   <i name="ALDAX">      1.00000000</i>
   <i name="AGGAX">      1.00000000</i>
   <i name="ALDAC">      1.00000000</i>
   <i name="AGGAC">      1.00000000</i>
   <i type="int" name="NKREDX">     1</i>
   <i type="int" name="NKREDY">     1</i>
   <i type="int" name="NKREDZ">     1</i>
   <i type="logical" name="SHIFTRED"> F  </i>
   <i type="logical" name="ODDONLY"> F  </i>
   <i type="logical" name="EVENONLY"> F  </i>
   <i type="int" name="LMAXFOCK">     0</i>
   <i type="int" name="NMAXFOCKAE">     0</i>
   <i type="logical" name="LFOCKAEDFT"> F  </i>
   <i name="HFSCREEN">      0.00000000</i>
   <i name="HFSCREENC">      0.00000000</i>
   <i type="int" name="NBANDSGWLOW">     0</i>
  </separator>
  <separator name="vdW DFT" >
   <i type="logical" name="LUSE_VDW"> F  </i>
   <i name="Zab_VDW">     -0.84910000</i>
   <i name="PARAM1">      0.12340000</i>
   <i name="PARAM2">      1.00000000</i>
   <i name="PARAM3">      0.00000000</i>
  </separator>
  <separator name="model GW" >
   <i type="int" name="MODEL_GW">     0</i>
   <i name="MODEL_EPS0">     18.11526668</i>
   <i name="MODEL_ALPHA">      1.00000000</i>
  </separator>
  <separator name="linear response parameters" >
   <i type="logical" name="LEPSILON"> F  </i>
   <i type="logical" name="LRPA"> F  </i>
   <i type="logical" name="LNABLA"> F  </i>
   <i type="logical" name="LVEL"> F  </i>
   <i type="int" name="KINTER">     0</i>
   <i name="CSHIFT">      0.10000000</i>
   <i name="OMEGAMAX">     -1.00000000</i>
   <i name="DEG_THRESHOLD">      0.00200000</i>
   <i name="RTIME">     -0.10000000</i>
   <i name="WPLASMAI">      0.00000000</i>
   <v name="DFIELD">      0.00000000      0.00000000      0.00000000</v>
   <v name="WPLASMA">      0.00000000      0.00000000      0.00000000      0.00000000      0.00000000      0.00000000      0.00000000      0.00000000      0.00000000</v>
  </separator>
  <separator name="orbital magnetization" >
   <i type="logical" name="NUCIND"> F  </i>
   <v name="MAGPOS">      0.00000000      0.00000000      0.00000000</v>
   <i type="logical" name="LNICSALL"> T  </i>
   <i type="logical" name="ORBITALMAG"> F  </i>
   <i type="logical" name="LMAGBLOCH"> F  </i>
   <i type="logical" name="LCHIMAG"> F  </i>
   <i type="logical" name="LGAUGE"> T  </i>
   <i type="int" name="MAGATOM">     0</i>
   <v name="MAGDIPOL">      0.00000000      0.00000000      0.00000000</v>
   <v name="AVECCONST">      0.00000000      0.00000000      0.00000000</v>
  </separator>
  <separator name="response functions" >
   <i type="logical" name="LFINITE_TEMPERATURE"> F  </i>
   <i type="logical" name="LADDER"> F  </i>
   <i type="logical" name="LRPAFORCE"> F  </i>
   <i type="logical" name="LFXC"> F  </i>
   <i type="logical" name="LHARTREE"> T  </i>
   <i type="int" name="IBSE">     0</i>
   <v type="int" name="KPOINT">    -1     0     0     0</v>
   <i type="logical" name="LTCTC"> F  </i>
   <i type="logical" name="LTCTE"> F  </i>
   <i type="logical" name="LTETE"> F  </i>
   <i type="logical" name="LTRIPLET"> F  </i>
   <i type="logical" name="LFXCEPS"> F  </i>
   <i type="logical" name="LFXHEG"> F  </i>
   <i type="int" name="NATURALO">     2</i>
   <i type="logical" name="LHOLEGF"> F  </i>
   <i type="logical" name="L2ORDER"> F  </i>
   <i type="logical" name="LDMP1"> F  </i>
   <i type="logical" name="LMP2LT"> F  </i>
   <i type="logical" name="LSMP2LT"> F  </i>
   <i type="logical" name="LGWLF"> F  </i>
   <i name="ENCUTGW">     -2.00000000</i>
   <i name="ENCUTGWSOFT">     -2.00000000</i>
   <i name="ENCUTLF">     -1.00000000</i>
   <i type="logical" name="LESF_SPLINES"> F  </i>
   <i type="int" name="LMAXMP2">    -1</i>
   <i name="SCISSOR">      0.00000000</i>
   <i type="int" name="NOMEGA">     0</i>
   <i type="int" name="NOMEGAR">     0</i>
   <i type="int" name="NBANDSGW">    -1</i>
   <i type="int" name="NBANDSO">    -1</i>
   <i type="int" name="NBANDSV">    -1</i>
   <i type="int" name="NELM">     1</i>
   <i type="int" name="NELMHF">     1</i>
   <i type="int" name="DIM">     3</i>
   <i type="int" name="IESPILON">     4</i>
   <i type="int" name="ANTIRES">     0</i>
   <i name="OMEGAMAX">    -30.00000000</i>
   <i name="OMEGAMIN">    -30.00000000</i>
   <i name="OMEGATL">   -200.00000000</i>
   <i type="int" name="OMEGAGRID">     0</i>
   <i name="CSHIFT">     -0.10000000</i>
   <i type="logical" name="LSELFENERGY"> F  </i>
   <i type="logical" name="LSPECTRAL"> F  </i>
   <i type="logical" name="LSPECTRALGW"> F  </i>
   <i type="logical" name="LSINGLES"> F  </i>
   <i type="logical" name="LFERMIGW"> F  </i>
   <i type="logical" name="ODDONLYGW"> F  </i>
   <i type="logical" name="EVENONLYGW"> F  </i>
   <i type="int" name="NKREDLFX">     1</i>
   <i type="int" name="NKREDLFY">     1</i>
   <i type="int" name="NKREDLFZ">     1</i>
   <i type="int" name="MAXMEM">  2800</i>
   <i type="int" name="TELESCOPE">     0</i>
   <i type="int" name="NTAUPAR">    -1</i>
   <i type="int" name="NOMEGAPAR">    -1</i>
   <i name="DAMP_NEWTON">      0.80000001</i>
   <i name="LAMBDA">      1.00000000</i>
  </separator>
  <separator name="External order field" >
   <i name="OFIELD_KAPPA">      0.00000000</i>
   <v name="OFIELD_K">      0.00000000      0.00000000      0.00000000</v>
   <i name="OFIELD_Q6_NEAR">      0.00000000</i>
   <i name="OFIELD_Q6_FAR">      0.00000000</i>
   <i name="OFIELD_A">      0.00000000</i>
  </separator>
  <separator name="solvation model" >
   <i type="logical" name="LSOL"> F  </i>
  </separator>
 </parameters>
 <atominfo>
  <atoms>     254 </atoms>
  <types>       2 </types>
  <array name="atoms" >
   <dimension dim="1">ion</dimension>
   <field type="string">element</field>
   <field type="int">atomtype</field>
   <set>
    <rc><c>Al</c><c>   1</c></rc>
    <rc><c>Al</c><c>   1</c></rc>
    <rc><c>Al</c><c>   1</c></rc>
    <rc><c>Al</c><c>   1</c></rc>
    <rc><c>Al</c><c>   1</c></rc>
    <rc><c>Al</c><c>   1</c></rc>
    <rc><c>Al</c><c>   1</c></rc>
    <rc><c>Al</c><c>   1</c></rc>
    <rc><c>Al</c><c>   1</c></rc>
    <rc><c>Al</c><c>   1</c></rc>
    <rc><c>Al</c><c>   1</c></rc>
    <rc><c>Al</c><c>   1</c></rc>
    <rc><c>Al</c><c>   1</c></rc>
    <rc><c>Al</c><c>   1</c></rc>
    <rc><c>Al</c><c>   1</c></rc>
    <rc><c>Al</c><c>   1</c></rc>
    <rc><c>Al</c><c>   1</c></rc>
    <rc><c>Al</c><c>   1</c></rc>
    <rc><c>Al</c><c>   1</c></rc>
    <rc><c>Al</c><c>   1</c></rc>
    <rc><c>Al</c><c>   1</c></rc>
    <rc><c>Al</c><c>   1</c></rc>
    <rc><c>Al</c><c>   1</c></rc>
    <rc><c>Al</c><c>   1</c></rc>
    <rc><c>Al</c><c>   1</c></rc>
    <rc><c>Al</c><c>   1</c></rc>
    <rc><c>Al</c><c>   1</c></rc>
    <rc><c>Al</c><c>   1</c></rc>
    <rc><c>Al</c><c>   1</c></rc>
    <rc><c>Al</c><c>   1</c></rc>
    <rc><c>Al</c><c>   1</c></rc>
    <rc><c>Al</c><c>   1</c></rc>
    <rc><c>Al</c><c>   1</c></rc>
    <rc><c>Al</c><c>   1</c></rc>
    <rc><c>Al</c><c>   1</c></rc>
    <rc><c>Al</c><c>   1</c></rc>
    <rc><c>Al</c><c>   1</c></rc>
    <rc><c>Al</c><c>   1</c></rc>
    <rc><c>Al</c><c>   1</c></rc>
    <rc><c>Al</c><c>   1</c></rc>
    <rc><c>Al</c><c>   1</c></rc>
    <rc><c>Al</c><c>   1</c></rc>
    <rc><c>Al</c><c>   1</c></rc>
    <rc><c>Al</c><c>   1</c></rc>
    <rc><c>Al</c><c>   1</c></rc>
    <rc><c>Al</c><c>   1</c></rc>
    <rc><c>Al</c><c>   1</c></rc>
    <rc><c>Al</c><c>   1</c></rc>
    <rc><c>Al</c><c>   1</c></rc>
    <rc><c>Al</c><c>   1</c></rc>
    <rc><c>Al</c><c>   1</c></rc>
    <rc><c>Al</c><c>   1</c></rc>
    <rc><c>Al</c><c>   1</c></rc>
    <rc><c>Al</c><c>   1</c></rc>
    <rc><c>Al</c><c>   1</c></rc>
    <rc><c>Al</c><c>   1</c></rc>
    <rc><c>Al</c><c>   1</c></rc>
    <rc><c>Al</c><c>   1</c></rc>
    <rc><c>Al</c><c>   1</c></rc>
    <rc><c>Al</c><c>   1</c></rc>
    <rc><c>Al</c><c>   1</c></rc>
    <rc><c>Al</c><c>   1</c></rc>
    <rc><c>Al</c><c>   1</c></rc>
    <rc><c>Al</c><c>   1</c></rc>
    <rc><c>Al</c><c>   1</c></rc>
    <rc><c>Al</c><c>   1</c></rc>
    <rc><c>Al</c><c>   1</c></rc>
    <rc><c>Al</c><c>   1</c></rc>
    <rc><c>Al</c><c>   1</c></rc>
    <rc><c>Al</c><c>   1</c></rc>
    <rc><c>Al</c><c>   1</c></rc>
    <rc><c>Al</c><c>   1</c></rc>
    <rc><c>Al</c><c>   1</c></rc>
    <rc><c>Al</c><c>   1</c></rc>
    <rc><c>Al</c><c>   1</c></rc>
    <rc><c>Al</c><c>   1</c></rc>
    <rc><c>Al</c><c>   1</c></rc>
    <rc><c>Al</c><c>   1</c></rc>
    <rc><c>Al</c><c>   1</c></rc>
    <rc><c>Al</c><c>   1</c></rc>
    <rc><c>Al</c><c>   1</c></rc>
    <rc><c>Al</c><c>   1</c></rc>
    <rc><c>Al</c><c>   1</c></rc>
    <rc><c>Al</c><c>   1</c></rc>
    <rc><c>Al</c><c>   1</c></rc>
    <rc><c>Al</c><c>   1</c></rc>
    <rc><c>Al</c><c>   1</c></rc>
    <rc><c>Al</c><c>   1</c></rc>
    <rc><c>Al</c><c>   1</c></rc>
    <rc><c>Al</c><c>   1</c></rc>
    <rc><c>Al</c><c>   1</c></rc>
    <rc><c>Al</c><c>   1</c></rc>
    <rc><c>Al</c><c>   1</c></rc>
    <rc><c>Al</c><c>   1</c></rc>
    <rc><c>Al</c><c>   1</c></rc>
    <rc><c>Al</c><c>   1</c></rc>
    <rc><c>Al</c><c>   1</c></rc>
    <rc><c>Al</c><c>   1</c></rc>
    <rc><c>Al</c><c>   1</c></rc>
    <rc><c>Al</c><c>   1</c></rc>
    <rc><c>Al</c><c>   1</c></rc>
    <rc><c>Al</c><c>   1</c></rc>
    <rc><c>Al</c><c>   1</c></rc>
    <rc><c>Al</c><c>   1</c></rc>
    <rc><c>Al</c><c>   1</c></rc>
    <rc><c>Al</c><c>   1</c></rc>
    <rc><c>Al</c><c>   1</c></rc>
    <rc><c>Al</c><c>   1</c></rc>
    <rc><c>Al</c><c>   1</c></rc>
    <rc><c>Al</c><c>   1</c></rc>
    <rc><c>Al</c><c>   1</c></rc>
    <rc><c>Al</c><c>   1</c></rc>
    <rc><c>Al</c><c>   1</c></rc>
    <rc><c>Al</c><c>   1</c></rc>
    <rc><c>Al</c><c>   1</c></rc>
    <rc><c>Al</c><c>   1</c></rc>
    <rc><c>Al</c><c>   1</c></rc>
    <rc><c>Al</c><c>   1</c></rc>
    <rc><c>Al</c><c>   1</c></rc>
    <rc><c>Al</c><c>   1</c></rc>
    <rc><c>Al</c><c>   1</c></rc>
    <rc><c>Al</c><c>   1</c></rc>
    <rc><c>Al</c><c>   1</c></rc>
    <rc><c>Al</c><c>   1</c></rc>
    <rc><c>Al</c><c>   1</c></rc>
    <rc><c>Al</c><c>   1</c></rc>
    <rc><c>Al</c><c>   1</c></rc>
    <rc><c>Al</c><c>   1</c></rc>
    <rc><c>Al</c><c>   1</c></rc>
    <rc><c>Al</c><c>   1</c></rc>
    <rc><c>Al</c><c>   1</c></rc>
    <rc><c>Al</c><c>   1</c></rc>
    <rc><c>Al</c><c>   1</c></rc>
    <rc><c>Al</c><c>   1</c></rc>
    <rc><c>Al</c><c>   1</c></rc>
    <rc><c>Al</c><c>   1</c></rc>
    <rc><c>Al</c><c>   1</c></rc>
    <rc><c>Al</c><c>   1</c></rc>
    <rc><c>Al</c><c>   1</c></rc>
    <rc><c>Al</c><c>   1</c></rc>
    <rc><c>Al</c><c>   1</c></rc>
    <rc><c>Al</c><c>   1</c></rc>
    <rc><c>Al</c><c>   1</c></rc>
    <rc><c>Al</c><c>   1</c></rc>
    <rc><c>Al</c><c>   1</c></rc>
    <rc><c>Al</c><c>   1</c></rc>
    <rc><c>Al</c><c>   1</c></rc>
    <rc><c>Al</c><c>   1</c></rc>
    <rc><c>Al</c><c>   1</c></rc>
    <rc><c>Al</c><c>   1</c></rc>
    <rc><c>Al</c><c>   1</c></rc>
    <rc><c>Al</c><c>   1</c></rc>
    <rc><c>Al</c><c>   1</c></rc>
    <rc><c>Al</c><c>   1</c></rc>
    <rc><c>Al</c><c>   1</c></rc>
    <rc><c>Al</c><c>   1</c></rc>
    <rc><c>Al</c><c>   1</c></rc>
    <rc><c>Al</c><c>   1</c></rc>
    <rc><c>Al</c><c>   1</c></rc>
    <rc><c>Al</c><c>   1</c></rc>
    <rc><c>Al</c><c>   1</c></rc>
    <rc><c>Al</c><c>   1</c></rc>
    <rc><c>Al</c><c>   1</c></rc>
    <rc><c>Al</c><c>   1</c></rc>
    <rc><c>Al</c><c>   1</c></rc>
    <rc><c>Al</c><c>   1</c></rc>
    <rc><c>Al</c><c>   1</c></rc>
    <rc><c>Al</c><c>   1</c></rc>
    <rc><c>Al</c><c>   1</c></rc>
    <rc><c>Al</c><c>   1</c></rc>
    <rc><c>Al</c><c>   1</c></rc>
    <rc><c>Al</c><c>   1</c></rc>
    <rc><c>Al</c><c>   1</c></rc>
    <rc><c>Al</c><c>   1</c></rc>
    <rc><c>Al</c><c>   1</c></rc>
    <rc><c>Al</c><c>   1</c></rc>
    <rc><c>Al</c><c>   1</c></rc>
    <rc><c>Al</c><c>   1</c></rc>
    <rc><c>Al</c><c>   1</c></rc>
    <rc><c>Al</c><c>   1</c></rc>
    <rc><c>Al</c><c>   1</c></rc>
    <rc><c>Al</c><c>   1</c></rc>
    <rc><c>Al</c><c>   1</c></rc>
    <rc><c>Al</c><c>   1</c></rc>
    <rc><c>Al</c><c>   1</c></rc>
    <rc><c>Al</c><c>   1</c></rc>
    <rc><c>Al</c><c>   1</c></rc>
    <rc><c>Al</c><c>   1</c></rc>
    <rc><c>Al</c><c>   1</c></rc>
    <rc><c>Al</c><c>   1</c></rc>
    <rc><c>Al</c><c>   1</c></rc>
    <rc><c>Al</c><c>   1</c></rc>
    <rc><c>Al</c><c>   1</c></rc>
    <rc><c>Al</c><c>   1</c></rc>
    <rc><c>Al</c><c>   1</c></rc>
    <rc><c>Al</c><c>   1</c></rc>
    <rc><c>Al</c><c>   1</c></rc>
    <rc><c>Al</c><c>   1</c></rc>
    <rc><c>Al</c><c>   1</c></rc>
    <rc><c>Al</c><c>   1</c></rc>
    <rc><c>Al</c><c>   1</c></rc>
    <rc><c>Al</c><c>   1</c></rc>
    <rc><c>Al</c><c>   1</c></rc>
    <rc><c>Al</c><c>   1</c></rc>
    <rc><c>Al</c><c>   1</c></rc>
    <rc><c>Al</c><c>   1</c></rc>
    <rc><c>Al</c><c>   1</c></rc>
    <rc><c>Al</c><c>   1</c></rc>
    <rc><c>Al</c><c>   1</c></rc>
    <rc><c>Al</c><c>   1</c></rc>
    <rc><c>Al</c><c>   1</c></rc>
    <rc><c>Al</c><c>   1</c></rc>
    <rc><c>Al</c><c>   1</c></rc>
    <rc><c>Al</c><c>   1</c></rc>
    <rc><c>Al</c><c>   1</c></rc>
    <rc><c>Al</c><c>   1</c></rc>
    <rc><c>Al</c><c>   1</c></rc>
    <rc><c>Al</c><c>   1</c></rc>
    <rc><c>Al</c><c>   1</c></rc>
    <rc><c>Al</c><c>   1</c></rc>
    <rc><c>Al</c><c>   1</c></rc>
    <rc><c>Al</c><c>   1</c></rc>
    <rc><c>Al</c><c>   1</c></rc>
    <rc><c>Al</c><c>   1</c></rc>
    <rc><c>Al</c><c>   1</c></rc>
    <rc><c>Al</c><c>   1</c></rc>
    <rc><c>Al</c><c>   1</c></rc>
    <rc><c>Al</c><c>   1</c></rc>
    <rc><c>Al</c><c>   1</c></rc>
    <rc><c>Al</c><c>   1</c></rc>
    <rc><c>Al</c><c>   1</c></rc>
    <rc><c>Al</c><c>   1</c></rc>
    <rc><c>Al</c><c>   1</c></rc>
    <rc><c>Al</c><c>   1</c></rc>
    <rc><c>Al</c><c>   1</c></rc>
    <rc><c>Al</c><c>   1</c></rc>
    <rc><c>Al</c><c>   1</c></rc>
    <rc><c>Al</c><c>   1</c></rc>
    <rc><c>Al</c><c>   1</c></rc>
    <rc><c>Al</c><c>   1</c></rc>
    <rc><c>Al</c><c>   1</c></rc>
    <rc><c>Al</c><c>   1</c></rc>
    <rc><c>Al</c><c>   1</c></rc>
    <rc><c>Al</c><c>   1</c></rc>
    <rc><c>Al</c><c>   1</c></rc>
    <rc><c>Al</c><c>   1</c></rc>
    <rc><c>Al</c><c>   1</c></rc>
    <rc><c>Al</c><c>   1</c></rc>
    <rc><c>Al</c><c>   1</c></rc>
    <rc><c>Al</c><c>   1</c></rc>
    <rc><c>Al</c><c>   1</c></rc>
    <rc><c>Al</c><c>   1</c></rc>
    <rc><c>O </c><c>   2</c></rc>
    <rc><c>O </c><c>   2</c></rc>
   </set>
  </array>
  <array name="atomtypes" >
   <dimension dim="1">type</dimension>
   <field type="int">atomspertype</field>
   <field type="string">element</field>
   <field>mass</field>
   <field>valence</field>
   <field type="string">pseudopotential</field>
   <set>
    <rc><c> 252</c><c>Al</c><c>     26.98200000</c><c>      3.00000000</c><c>  PAW Al_GW 19Mar2012                   </c></rc>
    <rc><c>   2</c><c>O </c><c>     16.00000000</c><c>      6.00000000</c><c>  PAW O_GW 19Mar2012                    </c></rc>
   </set>
  </array>
 </atominfo>
 <structure name="initialpos" >
  <crystal>
   <varray name="basis" >
    <v>       0.00000000     -17.18057346       0.00000000 </v>
    <v>       0.00000000      -8.59028673     -14.87881307 </v>
    <v>      30.00000000       0.00000000       0.00000000 </v>
   </varray>
   <i name="volume">   7668.79622957 </i>
   <varray name="rec_basis" >
    <v>       0.00000000      -0.05820527       0.03360483 </v>
    <v>       0.00000000       0.00000000      -0.06720966 </v>
    <v>       0.03333333       0.00000000       0.00000000 </v>
   </varray>
  </crystal>
  <varray name="positions" >
   <v>       0.44647042       0.61313695       0.54813167 </v>
   <v>       0.61676438       0.44161789       0.54274033 </v>
   <v>       0.77933134       0.27645418       0.54457700 </v>
   <v>       0.94446263       0.11112916       0.54455700 </v>
   <v>       0.94469853       0.27765051       0.54439633 </v>
   <v>       0.94446231       0.44440843       0.54455703 </v>
   <v>       0.77756522       0.61141772       0.54477170 </v>
   <v>       0.61066527       0.77733149       0.54505137 </v>
   <v>       0.44475100       0.94423190       0.54477170 </v>
   <v>       0.61108088       0.94445975       0.54423703 </v>
   <v>       0.77779301       0.94445975       0.54423703 </v>
   <v>       0.94533687       0.77733149       0.54505140 </v>
   <v>       0.94435069       0.61141772       0.54477170 </v>
   <v>       0.83338994       0.66655317       0.46628503 </v>
   <v>       0.66659154       0.83325800       0.46624437 </v>
   <v>       0.72222214       0.88888878       0.38989003 </v>
   <v>       0.88918804       0.72203871       0.38970437 </v>
   <v>       0.94436763       0.77781601       0.31176303 </v>
   <v>       0.77772874       0.94439516       0.31179437 </v>
   <v>       0.94460836       0.94455377       0.31170337 </v>
   <v>       0.88918767       0.88877311       0.38970437 </v>
   <v>       0.83348356       0.83325793       0.46624437 </v>
   <v>       0.77779271       0.77774752       0.54423703 </v>
   <v>       0.77933153       0.44421420       0.54457700 </v>
   <v>       0.66769054       0.50002913       0.46598200 </v>
   <v>       0.83412399       0.33293785       0.46617733 </v>
   <v>       0.88871778       0.38906605       0.38961200 </v>
   <v>       0.72184811       0.55574460       0.38955770 </v>
   <v>       0.77788688       0.61083844       0.31170337 </v>
   <v>       0.61114991       0.77781608       0.31176303 </v>
   <v>       0.66677775       0.83344424       0.23383837 </v>
   <v>       0.83310763       0.66711780       0.23388603 </v>
   <v>       0.88886298       0.72238034       0.15701270 </v>
   <v>       0.72222205       0.88888885       0.15674603 </v>
   <v>       0.77790746       0.94457414       0.07850070 </v>
   <v>       0.94462679       0.77768650       0.07892070 </v>
   <v>       0.94437139       0.94434764       0.07907270 </v>
   <v>       0.88886298       0.88875651       0.15701270 </v>
   <v>       0.83311096       0.83344424       0.23383837 </v>
   <v>       0.77772849       0.77787596       0.31179433 </v>
   <v>       0.72210616       0.72203878       0.38970433 </v>
   <v>       0.66652204       0.66692618       0.46661397 </v>
   <v>       0.55530926       0.72197560       0.38993563 </v>
   <v>       0.50025968       0.83318871       0.46661397 </v>
   <v>       0.33336245       0.83435748       0.46598197 </v>
   <v>       0.27495109       0.78343131       0.54274027 </v>
   <v>       0.10978752       0.94599804       0.54457697 </v>
   <v>       0.27754735       0.94599804       0.54457697 </v>
   <v>       0.44336860       0.77829185       0.54522563 </v>
   <v>       0.49955860       0.66622512       0.46701230 </v>
   <v>       0.61162511       0.61003515       0.54522563 </v>
   <v>       0.61120903       0.94439529       0.31179433 </v>
   <v>       0.44417142       0.94455384       0.31170333 </v>
   <v>       0.38907810       0.88851436       0.38955763 </v>
   <v>       0.38887251       0.72177861       0.38999097 </v>
   <v>       0.22268194       0.72177854       0.38999097 </v>
   <v>       0.05574060       0.88851429       0.38955763 </v>
   <v>       0.99988468       0.83318864       0.46661397 </v>
   <v>       0.16754934       0.66622505       0.46701230 </v>
   <v>       0.27372584       0.61313681       0.54813163 </v>
   <v>       0.11167277       0.61003502       0.54522560 </v>
   <v>       0.27495100       0.44161775       0.54274027 </v>
   <v>       0.44336913       0.27833927       0.54522560 </v>
   <v>       0.61066523       0.11200349       0.54505127 </v>
   <v>       0.66652232       0.16655152       0.46661393 </v>
   <v>       0.83339018       0.00005713       0.46628493 </v>
   <v>       0.88885516       0.05552197       0.38959593 </v>
   <v>       0.72184793       0.22240685       0.38955760 </v>
   <v>       0.77749466       0.27796579       0.31171260 </v>
   <v>       0.61055419       0.44472297       0.31197627 </v>
   <v>       0.66615318       0.50009103       0.23391593 </v>
   <v>       0.49974106       0.66640732       0.23375593 </v>
   <v>       0.55547826       0.72214504       0.15730260 </v>
   <v>       0.38881138       0.88887668       0.15724227 </v>
   <v>       0.33342410       0.83281979       0.23391593 </v>
   <v>       0.27805654       0.77722053       0.31197627 </v>
   <v>       0.11129902       0.94416127       0.31171260 </v>
   <v>       0.27787259       0.94416133       0.31171260 </v>
   <v>       0.22221603       0.88890155       0.38954527 </v>
   <v>       0.16561310       0.83435748       0.46598193 </v>
   <v>       0.11167251       0.77829185       0.54522560 </v>
   <v>       0.94460768       0.61083844       0.31170333 </v>
   <v>       0.94455295       0.44422703       0.31183900 </v>
   <v>       0.94442060       0.27778963       0.31193897 </v>
   <v>       0.94455283       0.11121989       0.31183893 </v>
   <v>       0.83333552       0.16676263       0.23394127 </v>
   <v>       0.66658932       0.16664569       0.23403587 </v>
   <v>       0.49974140       0.33385116       0.23375590 </v>
   <v>       0.55518945       0.38928710       0.15703123 </v>
   <v>       0.38888911       0.55555574       0.15689827 </v>
   <v>       0.44428755       0.61095472       0.07849263 </v>
   <v>       0.61116739       0.44441657       0.07848860 </v>
   <v>       0.77791516       0.27773734       0.07896227 </v>
   <v>       0.72221023       0.22231216       0.15724223 </v>
   <v>       0.72209020       0.05552997       0.15701253 </v>
   <v>       0.88897740       0.05564429       0.15723557 </v>
   <v>       0.83310787       0.99977418       0.23388587 </v>
   <v>       0.77788709       0.11127494       0.31170323 </v>
   <v>       0.61115009       0.11103366       0.31176287 </v>
   <v>       0.55537222       0.05585446       0.38970417 </v>
   <v>       0.49988611       0.00005693       0.46628480 </v>
   <v>       0.33361572       0.16645528       0.46644947 </v>
   <v>       0.16627138       0.33293758       0.46617713 </v>
   <v>       0.99978866       0.50028224       0.46644947 </v>
   <v>       0.05574051       0.55574433       0.38955747 </v>
   <v>       0.22221596       0.38888230       0.38954517 </v>
   <v>       0.27805602       0.44472277       0.31197617 </v>
   <v>       0.11153985       0.61107139       0.31175613 </v>
   <v>       0.16718468       0.66640712       0.23375580 </v>
   <v>       0.99997910       0.83325578       0.23403580 </v>
   <v>       0.05564501       0.88887648       0.15724213 </v>
   <v>       0.22262062       0.72185577       0.15703117 </v>
   <v>       0.27774979       0.77783402       0.07848850 </v>
   <v>       0.11107074       0.94458187       0.07896217 </v>
   <v>       0.27768042       0.94458187       0.07896217 </v>
   <v>       0.44461397       0.94434730       0.07907253 </v>
   <v>       0.61102037       0.77768623       0.07892053 </v>
   <v>       0.77768087       0.61128048       0.07907257 </v>
   <v>       0.72221020       0.55547757       0.15724220 </v>
   <v>       0.83333518       0.49990191       0.23394123 </v>
   <v>       0.88893830       0.38871091       0.15711390 </v>
   <v>       0.83335154       0.33332410       0.23389453 </v>
   <v>       0.72200796       0.38899588       0.15715187 </v>
   <v>       0.66615301       0.33375559       0.23391587 </v>
   <v>       0.61072178       0.27820673       0.31175617 </v>
   <v>       0.55530915       0.22271508       0.38993547 </v>
   <v>       0.44440428       0.27820673       0.31175613 </v>
   <v>       0.38887225       0.38934866       0.38999080 </v>
   <v>       0.49955895       0.33421523       0.46701213 </v>
   <v>       0.33309298       0.49975929       0.46655580 </v>
   <v>       0.38888884       0.55555547       0.38914117 </v>
   <v>       0.44443520       0.61110224       0.31202187 </v>
   <v>       0.27779524       0.61110224       0.31202180 </v>
   <v>       0.33346324       0.50012968       0.23392380 </v>
   <v>       0.16708902       0.50009063       0.23391577 </v>
   <v>       0.00009589       0.49990177       0.23394103 </v>
   <v>       0.16665739       0.33332397       0.23389437 </v>
   <v>       0.22232922       0.38899581       0.15715173 </v>
   <v>       0.38881110       0.22231182       0.15724210 </v>
   <v>       0.55571389       0.05552977       0.15701243 </v>
   <v>       0.50045135       0.99977391       0.23388573 </v>
   <v>       0.33323580       0.16676229       0.23394107 </v>
   <v>       0.27787278       0.27796538       0.31171240 </v>
   <v>       0.11112300       0.27778923       0.31193867 </v>
   <v>       0.05555560       0.22222156       0.38949930 </v>
   <v>       0.00003566       0.16670228       0.46621327 </v>
   <v>       0.16627146       0.00078985       0.46617693 </v>
   <v>       0.22239965       0.05538365       0.38961167 </v>
   <v>       0.27756057       0.11121949       0.31183870 </v>
   <v>       0.38895613       0.05552150       0.38959573 </v>
   <v>       0.38907830       0.22240652       0.38955743 </v>
   <v>       0.50025917       0.16655132       0.46661380 </v>
   <v>       0.44475103       0.11101658       0.54477143 </v>
   <v>       0.27774129       0.11112869       0.54455670 </v>
   <v>       0.11098393       0.27765004       0.54439600 </v>
   <v>       0.27754742       0.27645377       0.54457673 </v>
   <v>       0.10978712       0.44421373       0.54457673 </v>
   <v>       0.16561323       0.50002880       0.46598177 </v>
   <v>       0.33336230       0.33227953       0.46598177 </v>
   <v>       0.49974012       0.50012988       0.23392397 </v>
   <v>       0.44443589       0.44446207       0.31202193 </v>
   <v>       0.72210653       0.05585446       0.38970420 </v>
   <v>       0.66659178       0.00015028       0.46624420 </v>
   <v>       0.83326199       0.50028251       0.46644963 </v>
   <v>       0.88885496       0.55562302       0.38959600 </v>
   <v>       0.44416718       0.77780653       0.07915597 </v>
   <v>       0.38885698       0.72185590       0.15703123 </v>
   <v>       0.33346313       0.66640665       0.23392387 </v>
   <v>       0.16708879       0.83281979       0.23391573 </v>
   <v>       0.11153913       0.77738869       0.31175600 </v>
   <v>       0.05604740       0.72197573       0.38993530 </v>
   <v>       0.99988377       0.66692638       0.46661357 </v>
   <v>       0.61113950       0.61083421       0.07915607 </v>
   <v>       0.55518924       0.55552341       0.15703137 </v>
   <v>       0.22232947       0.88867431       0.15715180 </v>
   <v>       0.77791523       0.44434714       0.07896253 </v>
   <v>       0.94442801       0.44447692       0.07888800 </v>
   <v>       0.94437144       0.61128055       0.07907300 </v>
   <v>       0.88897708       0.55537831       0.15723597 </v>
   <v>       0.72208951       0.72238020       0.15701283 </v>
   <v>       0.66658892       0.66676495       0.23403613 </v>
   <v>       0.61072104       0.61107173       0.31175643 </v>
   <v>       0.55511101       0.55553914       0.38999103 </v>
   <v>       0.50047935       0.49975989       0.46655600 </v>
   <v>       0.55511109       0.38934907       0.38999103 </v>
   <v>       0.72223451       0.38888270       0.38954550 </v>
   <v>       0.66768973       0.33228013       0.46598210 </v>
   <v>       0.61162410       0.27833974       0.54522573 </v>
   <v>       0.77756380       0.11101726       0.54477187 </v>
   <v>       0.83326097       0.16645575       0.46644990 </v>
   <v>       0.88871658       0.22221685       0.38961227 </v>
   <v>       0.94435766       0.27782109       0.07863630 </v>
   <v>       0.94442850       0.11109475       0.07888793 </v>
   <v>       0.88893848       0.22235033       0.15711423 </v>
   <v>       0.50009816       0.83325598       0.23403603 </v>
   <v>       0.44440404       0.77738869       0.31175633 </v>
   <v>       0.77790761       0.77751760       0.07850090 </v>
   <v>       0.61085136       0.94457387       0.07850077 </v>
   <v>       0.55571326       0.88875631       0.15701273 </v>
   <v>       0.77768183       0.11103823       0.07907267 </v>
   <v>       0.61102103       0.11129295       0.07892033 </v>
   <v>       0.44416832       0.27802594       0.07915537 </v>
   <v>       0.27775011       0.44441623       0.07848777 </v>
   <v>       0.11135997       0.61083407       0.07915480 </v>
   <v>       0.05564524       0.55547771       0.15724100 </v>
   <v>       0.05570985       0.72214490       0.15730137 </v>
   <v>       0.99997833       0.66676508       0.23403457 </v>
   <v>       0.61114001       0.27802601       0.07915570 </v>
   <v>       0.55547867       0.22237661       0.15730227 </v>
   <v>       0.50009777       0.16664595       0.23403547 </v>
   <v>       0.44417008       0.11127548       0.31170267 </v>
   <v>       0.38885682       0.38928710       0.15703063 </v>
   <v>       0.33342384       0.33375606       0.23391517 </v>
   <v>       0.44428858       0.44475772       0.07849207 </v>
   <v>       0.27809169       0.61095438       0.07849180 </v>
   <v>       0.22262034       0.55552348       0.15703033 </v>
   <v>       0.11135996       0.77780640       0.07915483 </v>
   <v>       0.66677737       0.99977841       0.23383807 </v>
   <v>       0.77749393       0.44453922       0.31171240 </v>
   <v>       0.11129962       0.44453949       0.31171260 </v>
   <v>       0.05555034       0.38906632       0.38961210 </v>
   <v>       0.00003705       0.33326146       0.46621397 </v>
   <v>       0.16661913       0.16672654       0.46623047 </v>
   <v>       0.11100844       0.11138933       0.54441333 </v>
   <v>       0.55537212       0.88877318       0.38970433 </v>
   <v>       0.22268253       0.55553820       0.38999077 </v>
   <v>       0.22239932       0.22221658       0.38961190 </v>
   <v>       0.33309350       0.66714730       0.46655623 </v>
   <v>       0.33361674       0.99992795       0.46644957 </v>
   <v>       0.44646926       0.44039299       0.54813160 </v>
   <v>       0.11107146       0.44434694       0.07896110 </v>
   <v>       0.11115508       0.27782088       0.07863473 </v>
   <v>       0.05555587       0.22222196       0.15691797 </v>
   <v>       0.00011505       0.16678226       0.23395320 </v>
   <v>       0.16665724       0.00001828       0.23389347 </v>
   <v>       0.22204425       0.05560517       0.15711293 </v>
   <v>       0.27781057       0.11109455       0.07888670 </v>
   <v>       0.38871183       0.05564422       0.15723490 </v>
   <v>       0.33323480       0.00000222       0.23394047 </v>
   <v>       0.16643546       0.16678226       0.23395350 </v>
   <v>       0.11112230       0.11108722       0.31193773 </v>
   <v>       0.05554805       0.05538473       0.38961060 </v>
   <v>       0.99978668       0.99992956       0.46644813 </v>
   <v>       0.27768160       0.27773694       0.07896140 </v>
   <v>       0.22204433       0.22235033       0.15711293 </v>
   <v>       0.05568395       0.38871098       0.15711267 </v>
   <v>       0.00011506       0.33310265       0.23395323 </v>
   <v>       0.44461440       0.11103816       0.07907200 </v>
   <v>       0.11115527       0.11102398       0.07863473 </v>
   <v>       0.05568368       0.05560517       0.15711263 </v>
   <v>       0.00009584       0.00000215       0.23393987 </v>
   <v>       0.94435015       0.94423190       0.54477173 </v>
   <v>       0.38888905       0.55555574       0.57152667 </v>
   <v>       0.38795474       0.52952833       0.60490343 </v>
  </varray>
 </structure>
 <calculation>
  <scstep>
   <time name="dav">    9.01    9.02</time>
   <time name="total">    9.48    9.51</time>
   <energy>
    <i name="alphaZ">    504.51365917 </i>
    <i name="ewald">  89081.32118565 </i>
    <i name="hartreedc">-103419.71948419 </i>
    <i name="XCdc">  -6589.22662724 </i>
    <i name="pawpsdc">  17380.74262607 </i>
    <i name="pawaedc">  -9326.59272269 </i>
    <i name="eentropy">     -0.06997325 </i>
    <i name="bandstr">    421.31802446 </i>
    <i name="atom">  14355.57734864 </i>
    <i name="e_fr_energy">   2407.86403662 </i>
    <i name="e_wo_entrp">   2407.93400987 </i>
    <i name="e_0_energy">   2407.89902324 </i>
   </energy>
  </scstep>
  <scstep>
   <time name="dav">   11.41   11.41</time>
   <time name="total">   11.41   11.41</time>
   <energy>
    <i name="e_fr_energy">   -689.48918109 </i>
    <i name="e_wo_entrp">   -689.36901013 </i>
    <i name="e_0_energy">   -689.42909561 </i>
   </energy>
  </scstep>
  <scstep>
   <time name="dav">   11.99   11.99</time>
   <time name="total">   11.99   11.99</time>
   <energy>
    <i name="e_fr_energy">   -936.43340425 </i>
    <i name="e_wo_entrp">   -936.22095243 </i>
    <i name="e_0_energy">   -936.32717834 </i>
   </energy>
  </scstep>
  <scstep>
   <time name="dav">   12.98   12.99</time>
   <time name="total">   12.99   12.99</time>
   <energy>
    <i name="e_fr_energy">   -954.28660751 </i>
    <i name="e_wo_entrp">   -954.05662931 </i>
    <i name="e_0_energy">   -954.17161841 </i>
   </energy>
  </scstep>
  <scstep>
   <time name="dav">   12.35   12.36</time>
   <time name="total">   13.26   13.26</time>
   <energy>
    <i name="e_fr_energy">   -955.57373956 </i>
    <i name="e_wo_entrp">   -955.34235254 </i>
    <i name="e_0_energy">   -955.45804605 </i>
   </energy>
  </scstep>
  <scstep>
   <time name="dav">   11.97   11.97</time>
   <time name="total">   13.33   13.33</time>
   <energy>
    <i name="e_fr_energy">   -967.55398202 </i>
    <i name="e_wo_entrp">   -967.43547130 </i>
    <i name="e_0_energy">   -967.49472666 </i>
   </energy>
  </scstep>
  <scstep>
   <time name="dav">   11.58   11.58</time>
   <time name="total">   12.94   12.94</time>
   <energy>
    <i name="e_fr_energy">   -966.05274400 </i>
    <i name="e_wo_entrp">   -965.85555055 </i>
    <i name="e_0_energy">   -965.95414728 </i>
   </energy>
  </scstep>
  <scstep>
   <time name="dav">   11.61   11.62</time>
   <time name="total">   12.99   12.99</time>
   <energy>
    <i name="e_fr_energy">   -941.25719907 </i>
    <i name="e_wo_entrp">   -941.16569014 </i>
    <i name="e_0_energy">   -941.21144461 </i>
   </energy>
  </scstep>
  <scstep>
   <time name="dav">   11.15   11.15</time>
   <time name="total">   12.51   12.51</time>
   <energy>
    <i name="e_fr_energy">   -983.49825090 </i>
    <i name="e_wo_entrp">   -983.42754969 </i>
    <i name="e_0_energy">   -983.46290029 </i>
   </energy>
  </scstep>
  <scstep>
   <time name="dav">   12.27   12.28</time>
   <time name="total">   13.66   13.67</time>
   <energy>
    <i name="e_fr_energy">   -928.74675490 </i>
    <i name="e_wo_entrp">   -928.66787432 </i>
    <i name="e_0_energy">   -928.70731461 </i>
   </energy>
  </scstep>
  <scstep>
   <time name="dav">   10.85   10.85</time>
   <time name="total">   12.23   12.23</time>
   <energy>
    <i name="e_fr_energy">   -928.05936281 </i>
    <i name="e_wo_entrp">   -927.98506600 </i>
    <i name="e_0_energy">   -928.02221440 </i>
   </energy>
  </scstep>
  <scstep>
   <time name="dav">   11.38   11.38</time>
   <time name="total">   12.76   12.76</time>
   <energy>
    <i name="e_fr_energy">   -927.12888640 </i>
    <i name="e_wo_entrp">   -927.05699766 </i>
    <i name="e_0_energy">   -927.09294203 </i>
   </energy>
  </scstep>
  <scstep>
   <time name="dav">   10.59   10.59</time>
   <time name="total">   11.98   11.98</time>
   <energy>
    <i name="e_fr_energy">   -926.95512263 </i>
    <i name="e_wo_entrp">   -926.88294612 </i>
    <i name="e_0_energy">   -926.91903438 </i>
   </energy>
  </scstep>
  <scstep>
   <time name="dav">   11.33   11.33</time>
   <time name="total">   12.73   12.74</time>
   <energy>
    <i name="e_fr_energy">   -926.90216851 </i>
    <i name="e_wo_entrp">   -926.83170118 </i>
    <i name="e_0_energy">   -926.86693484 </i>
   </energy>
  </scstep>
  <scstep>
   <time name="dav">   11.71   11.71</time>
   <time name="total">   13.13   13.13</time>
   <energy>
    <i name="e_fr_energy">   -926.74830999 </i>
    <i name="e_wo_entrp">   -926.67735012 </i>
    <i name="e_0_energy">   -926.71283006 </i>
   </energy>
  </scstep>
  <scstep>
   <time name="dav">   12.14   12.14</time>
   <time name="total">   13.56   13.56</time>
   <energy>
    <i name="e_fr_energy">   -926.60022293 </i>
    <i name="e_wo_entrp">   -926.53000252 </i>
    <i name="e_0_energy">   -926.56511273 </i>
   </energy>
  </scstep>
  <scstep>
   <time name="dav">   10.03   10.03</time>
   <time name="total">   11.45   11.45</time>
   <energy>
    <i name="e_fr_energy">   -926.63005416 </i>
    <i name="e_wo_entrp">   -926.55987039 </i>
    <i name="e_0_energy">   -926.59496228 </i>
   </energy>
  </scstep>
  <scstep>
   <time name="dav">   13.02   13.02</time>
   <time name="total">   14.46   14.46</time>
   <energy>
    <i name="e_fr_energy">   -926.62533311 </i>
    <i name="e_wo_entrp">   -926.55528073 </i>
    <i name="e_0_energy">   -926.59030692 </i>
   </energy>
  </scstep>
  <scstep>
   <time name="dav">   13.28   13.28</time>
   <time name="total">   14.73   14.73</time>
   <energy>
    <i name="e_fr_energy">   -926.61724259 </i>
    <i name="e_wo_entrp">   -926.54741976 </i>
    <i name="e_0_energy">   -926.58233118 </i>
   </energy>
  </scstep>
  <scstep>
   <time name="dav">   12.90   12.90</time>
   <time name="total">   14.38   14.38</time>
   <energy>
    <i name="e_fr_energy">   -926.61244199 </i>
    <i name="e_wo_entrp">   -926.54345202 </i>
    <i name="e_0_energy">   -926.57794701 </i>
   </energy>
  </scstep>
  <scstep>
   <time name="dav">   10.20   10.20</time>
   <time name="total">   11.68   11.69</time>
   <energy>
    <i name="e_fr_energy">   -926.62106800 </i>
    <i name="e_wo_entrp">   -926.55210524 </i>
    <i name="e_0_energy">   -926.58658662 </i>
   </energy>
  </scstep>
  <scstep>
   <time name="dav">   11.73   11.73</time>
   <time name="total">   13.23   13.24</time>
   <energy>
    <i name="e_fr_energy">   -926.62203840 </i>
    <i name="e_wo_entrp">   -926.55307194 </i>
    <i name="e_0_energy">   -926.58755517 </i>
   </energy>
  </scstep>
  <scstep>
   <time name="dav">   11.60   11.60</time>
   <time name="total">   13.12   13.12</time>
   <energy>
    <i name="e_fr_energy">   -926.62153429 </i>
    <i name="e_wo_entrp">   -926.55254467 </i>
    <i name="e_0_energy">   -926.58703948 </i>
   </energy>
  </scstep>
  <scstep>
   <time name="dav">   10.43   10.43</time>
   <time name="total">   11.94   11.94</time>
   <energy>
    <i name="e_fr_energy">   -926.62281324 </i>
    <i name="e_wo_entrp">   -926.55375954 </i>
    <i name="e_0_energy">   -926.58828639 </i>
   </energy>
  </scstep>
  <scstep>
   <time name="dav">   11.60   11.60</time>
   <time name="total">   13.15   13.15</time>
   <energy>
    <i name="e_fr_energy">   -926.62330462 </i>
    <i name="e_wo_entrp">   -926.55418697 </i>
    <i name="e_0_energy">   -926.58874579 </i>
   </energy>
  </scstep>
  <scstep>
   <time name="dav">   10.48   10.49</time>
   <time name="total">   12.04   12.04</time>
   <energy>
    <i name="e_fr_energy">   -926.62430389 </i>
    <i name="e_wo_entrp">   -926.55516654 </i>
    <i name="e_0_energy">   -926.58973522 </i>
   </energy>
  </scstep>
  <scstep>
   <time name="dav">   11.60   11.60</time>
   <time name="total">   13.17   13.18</time>
   <energy>
    <i name="e_fr_energy">   -926.62499855 </i>
    <i name="e_wo_entrp">   -926.55583145 </i>
    <i name="e_0_energy">   -926.59041500 </i>
   </energy>
  </scstep>
  <scstep>
   <time name="dav">   11.68   11.68</time>
   <time name="total">   13.27   13.28</time>
   <energy>
    <i name="e_fr_energy">   -926.62548855 </i>
    <i name="e_wo_entrp">   -926.55633567 </i>
    <i name="e_0_energy">   -926.59091211 </i>
   </energy>
  </scstep>
  <scstep>
   <time name="dav">   11.97   11.97</time>
   <time name="total">   13.57   13.57</time>
   <energy>
    <i name="e_fr_energy">   -926.62605615 </i>
    <i name="e_wo_entrp">   -926.55693355 </i>
    <i name="e_0_energy">   -926.59149485 </i>
   </energy>
  </scstep>
  <scstep>
   <time name="dav">    9.93    9.93</time>
   <time name="total">   11.58   11.58</time>
   <energy>
    <i name="e_fr_energy">   -926.62653056 </i>
    <i name="e_wo_entrp">   -926.55742339 </i>
    <i name="e_0_energy">   -926.59197697 </i>
   </energy>
  </scstep>
  <scstep>
   <time name="dav">   10.27   10.28</time>
   <time name="total">   11.92   11.92</time>
   <energy>
    <i name="e_fr_energy">   -926.62702586 </i>
    <i name="e_wo_entrp">   -926.55793675 </i>
    <i name="e_0_energy">   -926.59248130 </i>
   </energy>
  </scstep>
  <scstep>
   <time name="dav">    9.34    9.34</time>
   <time name="total">   11.02   11.02</time>
   <energy>
[...]
       <r>    -0.1704    91.4812   571.3342 </r>
       <r>    -0.0890    52.1927   575.5814 </r>
       <r>    -0.0076    88.2726   582.7646 </r>
       <r>     0.0737    59.2274   587.5842 </r>
       <r>     0.1551    69.2287   593.2177 </r>
       <r>     0.2365   120.8595   603.0527 </r>
       <r>     0.3179    72.9757   608.9912 </r>
       <r>     0.3992    74.0135   615.0140 </r>
       <r>     0.4806   119.4008   624.7303 </r>
       <r>     0.5620   124.0390   634.8240 </r>
       <r>     0.6434    80.5461   641.3785 </r>
       <r>     0.7247    45.0310   645.0429 </r>
       <r>     0.8061    49.4289   649.0652 </r>
       <r>     0.8875   123.8724   659.1454 </r>
       <r>     0.9689   157.8989   671.9945 </r>
       <r>     1.0502   165.5305   685.4646 </r>
       <r>     1.1316   152.3080   697.8587 </r>
       <r>     1.2130    85.9607   704.8538 </r>
       <r>     1.2944    38.0019   707.9462 </r>
       <r>     1.3757    48.7572   711.9138 </r>
       <r>     1.4571   147.0287   723.8783 </r>
       <r>     1.5385   169.5030   737.6717 </r>
       <r>     1.6199   106.5374   746.3412 </r>
       <r>     1.7012    95.0436   754.0754 </r>
       <r>     1.7826    76.6937   760.3164 </r>
       <r>     1.8640   102.7686   768.6792 </r>
       <r>     1.9454   128.8777   779.1667 </r>
       <r>     2.0267   125.6565   789.3920 </r>
       <r>     2.1081    96.0985   797.2121 </r>
       <r>     2.1895    94.7470   804.9222 </r>
       <r>     2.2709    56.2735   809.5014 </r>
       <r>     2.3522    48.4069   813.4406 </r>
       <r>     2.4336    95.9273   821.2467 </r>
       <r>     2.5150   147.0423   833.2123 </r>
       <r>     2.5964   118.7308   842.8741 </r>
       <r>     2.6777   107.5480   851.6258 </r>
       <r>     2.7591    68.8105   857.2253 </r>
       <r>     2.8405    92.6213   864.7624 </r>
       <r>     2.9219   197.6482   880.8461 </r>
       <r>     3.0032   223.6226   899.0435 </r>
       <r>     3.0846   160.3856   912.0949 </r>
       <r>     3.1660    87.6563   919.2280 </r>
       <r>     3.2474    87.2832   926.3307 </r>
       <r>     3.3287    90.5299   933.6976 </r>
       <r>     3.4101   141.5426   945.2157 </r>
       <r>     3.4915   147.1969   957.1939 </r>
       <r>     3.5729    94.3155   964.8688 </r>
       <r>     3.6542   105.7120   973.4712 </r>
       <r>     3.7356    72.0373   979.3333 </r>
       <r>     3.8170    73.6307   985.3250 </r>
       <r>     3.8984    81.6131   991.9663 </r>
       <r>     3.9797   132.3418  1002.7356 </r>
       <r>     4.0611   199.2829  1018.9524 </r>
       <r>     4.1425    59.8860  1023.8256 </r>
       <r>     4.2239     2.1415  1023.9999 </r>
       <r>     4.3053     0.0017  1024.0000 </r>
       <r>     4.3866     0.0000  1024.0000 </r>
       <r>     4.4680     0.0000  1024.0000 </r>
       <r>     4.5494     0.0000  1024.0000 </r>
       <r>     4.6308     0.0000  1024.0000 </r>
       <r>     4.7121     0.0000  1024.0000 </r>
       <r>     4.7935     0.0000  1024.0000 </r>
       <r>     4.8749     0.0000  1024.0000 </r>
       <r>     4.9563     0.0000  1024.0000 </r>
       <r>     5.0376     0.0000  1024.0000 </r>
       <r>     5.1190     0.0000  1024.0000 </r>
       <r>     5.2004     0.0000  1024.0000 </r>
      </set>
     </set>
    </array>
   </total>
  </dos>
 </calculation>
 <structure name="finalpos" >
  <crystal>
   <varray name="basis" >
    <v>       0.00000000     -17.18057346       0.00000000 </v>
    <v>       0.00000000      -8.59028673     -14.87881307 </v>
    <v>      30.00000000       0.00000000       0.00000000 </v>
   </varray>
   <i name="volume">   7668.79622957 </i>
   <varray name="rec_basis" >
    <v>       0.00000000      -0.05820527       0.03360483 </v>
    <v>       0.00000000       0.00000000      -0.06720966 </v>
    <v>       0.03333333       0.00000000       0.00000000 </v>
   </varray>
  </crystal>
  <varray name="positions" >
   <v>       0.45214613       0.61879835       0.53841213 </v>
   <v>       0.61517324       0.44310029       0.53988509 </v>
   <v>       0.77657045       0.27699589       0.54139332 </v>
   <v>       0.94294463       0.11265961       0.54089244 </v>
   <v>       0.94483247       0.27674534       0.54143398 </v>
   <v>       0.94629763       0.44254463       0.54090680 </v>
   <v>       0.78205428       0.61071709       0.54090186 </v>
   <v>       0.61240884       0.78034148       0.54059919 </v>
   <v>       0.44433292       0.94861773       0.54115570 </v>
   <v>       0.61186478       0.94552428       0.54082052 </v>
   <v>       0.77722687       0.94457907       0.54067535 </v>
   <v>       0.94313830       0.77884834       0.54103948 </v>
   <v>       0.94472255       0.61125363       0.54098132 </v>
   <v>       0.83356951       0.66750848       0.46272554 </v>
   <v>       0.66679639       0.83410524       0.46277088 </v>
   <v>       0.72221089       0.88893784       0.38755628 </v>
   <v>       0.88915541       0.72199925       0.38733124 </v>
   <v>       0.94383056       0.77829956       0.31143534 </v>
   <v>       0.77798087       0.94425137       0.31151360 </v>
   <v>       0.94444849       0.94465128       0.31157883 </v>
   <v>       0.88870214       0.88913136       0.38747411 </v>
   <v>       0.83263886       0.83389234       0.46282421 </v>
   <v>       0.77796572       0.77911546       0.54027690 </v>
   <v>       0.77943869       0.44260303       0.54131213 </v>
   <v>       0.66756333       0.50084455       0.46327252 </v>
   <v>       0.83379507       0.33272341       0.46357924 </v>
   <v>       0.88912459       0.38810948       0.38768304 </v>
   <v>       0.72234799       0.55512489       0.38746953 </v>
   <v>       0.77829996       0.61077229       0.31151640 </v>
   <v>       0.61123774       0.77902235       0.31091390 </v>
   <v>       0.66730957       0.83321421       0.23558737 </v>
   <v>       0.83340735       0.66698320       0.23593942 </v>
   <v>       0.88921975       0.72214817       0.16023347 </v>
   <v>       0.72208087       0.88915909       0.16018781 </v>
   <v>       0.77794358       0.94457301       0.08256866 </v>
   <v>       0.94502871       0.77760421       0.08281367 </v>
   <v>       0.94430758       0.94464656       0.08312505 </v>
   <v>       0.88903087       0.88857091       0.16036254 </v>
   <v>       0.83336915       0.83284353       0.23554417 </v>
   <v>       0.77794999       0.77804443       0.31151510 </v>
   <v>       0.72308492       0.72249638       0.38720888 </v>
   <v>       0.66773778       0.66763648       0.46237285 </v>
   <v>       0.55627057       0.72350183       0.38662442 </v>
   <v>       0.50050044       0.83515574       0.46277816 </v>
   <v>       0.33324982       0.83704002       0.46212574 </v>
   <v>       0.27134029       0.79222496       0.53840035 </v>
   <v>       0.10547245       0.94972089       0.54026967 </v>
   <v>       0.27593990       0.95195775       0.54047606 </v>
   <v>       0.44343851       0.77952388       0.53989226 </v>
   <v>       0.50024661       0.66771157       0.46269659 </v>
   <v>       0.61451310       0.61265467       0.54036957 </v>
   <v>       0.61089359       0.94470433       0.31158096 </v>
   <v>       0.44431518       0.94492051       0.31148798 </v>
   <v>       0.38847776       0.89004669       0.38706594 </v>
   <v>       0.39000003       0.72373129       0.38602175 </v>
   <v>       0.21953436       0.72330431       0.38689975 </v>
   <v>       0.05513103       0.88938492       0.38743729 </v>
   <v>       0.99915601       0.83377317       0.46328886 </v>
   <v>       0.16868684       0.66588501       0.46473823 </v>
   <v>       0.26590455       0.61804183       0.54159187 </v>
   <v>       0.11115278       0.61170587       0.54155574 </v>
   <v>       0.28886149       0.44431517       0.55474139 </v>
   <v>       0.44618882       0.28171302       0.54346135 </v>
   <v>       0.61163675       0.11029290       0.54063881 </v>
   <v>       0.66499047       0.16789137       0.46328558 </v>
   <v>       0.83255079       0.00066252       0.46346251 </v>
   <v>       0.88839934       0.05561066       0.38753359 </v>
   <v>       0.72210372       0.22222621       0.38781537 </v>
   <v>       0.77808253       0.27742714       0.31156228 </v>
   <v>       0.61097919       0.44407200       0.31174373 </v>
   <v>       0.66656887       0.49993029       0.23576461 </v>
   <v>       0.49982293       0.66630174       0.23583558 </v>
   <v>       0.55559318       0.72194481       0.16034554 </v>
   <v>       0.38864836       0.88882198       0.16024672 </v>
   <v>       0.33353961       0.83321779       0.23570744 </v>
   <v>       0.27754598       0.77787510       0.31141435 </v>
   <v>       0.11082777       0.94453897       0.31166224 </v>
   <v>       0.27732315       0.94516350       0.31158997 </v>
   <v>       0.22138279       0.89062193       0.38738247 </v>
   <v>       0.16341277       0.83663521       0.46254801 </v>
   <v>       0.11349934       0.77660165       0.54108127 </v>
   <v>       0.94464370       0.61093976       0.31161030 </v>
   <v>       0.94449914       0.44446438       0.31180275 </v>
   <v>       0.94443306       0.27741045       0.31173758 </v>
   <v>       0.94401425       0.11130697       0.31182039 </v>
   <v>       0.83330945       0.16682011       0.23587048 </v>
   <v>       0.66648783       0.16639080       0.23595604 </v>
   <v>       0.50011192       0.33358825       0.23562869 </v>
   <v>       0.55562379       0.38927590       0.16020159 </v>
   <v>       0.38899130       0.55610943       0.16039017 </v>
   <v>       0.44398933       0.61139434       0.08241498 </v>
   <v>       0.61093566       0.44490807       0.08237761 </v>
   <v>       0.77771131       0.27784230       0.08256759 </v>
   <v>       0.72247364       0.22214304       0.16013698 </v>
   <v>       0.72225621       0.05548944       0.16006636 </v>
   <v>       0.88897722       0.05587327       0.16040422 </v>
   <v>       0.83301588       0.99985497       0.23581953 </v>
   <v>       0.77775212       0.11106038       0.31166894 </v>
   <v>       0.61099967       0.11152051       0.31213762 </v>
   <v>       0.55535172       0.05610107       0.38726371 </v>
   <v>       0.50039584       0.00101746       0.46312158 </v>
   <v>       0.33317360       0.16792927       0.46352517 </v>
   <v>       0.16736587       0.33320218       0.46377292 </v>
   <v>       0.00046682       0.49981527       0.46366302 </v>
   <v>       0.05695118       0.55473403       0.38789713 </v>
   <v>       0.22252798       0.38796475       0.38761794 </v>
   <v>       0.27816066       0.44461045       0.31162886 </v>
   <v>       0.11188426       0.61072934       0.31193980 </v>
   <v>       0.16715194       0.66622804       0.23555538 </v>
   <v>      -0.00007259       0.83302030       0.23577787 </v>
   <v>       0.05571160       0.88885255       0.16020727 </v>
   <v>       0.22247456       0.72233384       0.16016415 </v>
   <v>       0.27827941       0.77702685       0.08216021 </v>
   <v>       0.11119348       0.94409693       0.08301175 </v>
   <v>       0.27783506       0.94423562       0.08290744 </v>
   <v>       0.44467585       0.94430067       0.08324584 </v>
   <v>       0.61024561       0.77805309       0.08314674 </v>
   <v>       0.77797531       0.61050730       0.08297562 </v>
   <v>       0.72218211       0.55570501       0.16009365 </v>
   <v>       0.83350750       0.49992288       0.23578980 </v>
   <v>       0.88916329       0.38844479       0.16032007 </v>
   <v>       0.83380968       0.33310045       0.23590223 </v>
   <v>       0.72226239       0.38890831       0.16025102 </v>
   <v>       0.66653005       0.33322380       0.23574442 </v>
   <v>       0.61126837       0.27764194       0.31170766 </v>
   <v>       0.55436548       0.22394943       0.38851040 </v>
   <v>       0.44442799       0.27778388       0.31178189 </v>
   <v>       0.38968125       0.38886814       0.38825200 </v>
   <v>       0.49500098       0.34117082       0.46730869 </v>
   <v>       0.33230341       0.49934812       0.46520842 </v>
   <v>       0.38871500       0.55454553       0.38609058 </v>
   <v>       0.44454967       0.61088774       0.31193563 </v>
   <v>       0.27752727       0.61120792       0.31183563 </v>
   <v>       0.33339727       0.50034458       0.23575718 </v>
   <v>       0.16637381       0.49983415       0.23568878 </v>
   <v>       0.00017355       0.49972095       0.23578559 </v>
   <v>       0.16664786       0.33318006       0.23601271 </v>
   <v>       0.22166588       0.38892426       0.16036955 </v>
   <v>       0.38901600       0.22175653       0.16007139 </v>
   <v>       0.55573384       0.05578098       0.16013295 </v>
   <v>       0.50056085       0.00000495       0.23597699 </v>
   <v>       0.33336959       0.16696419       0.23592481 </v>
   <v>       0.27779110       0.27754125       0.31178804 </v>
   <v>       0.11134686       0.27748705       0.31164775 </v>
   <v>       0.05544122       0.22211844       0.38766091 </v>
   <v>      -0.00034313       0.16705013       0.46318024 </v>
   <v>       0.16544003       0.00233119       0.46233867 </v>
   <v>       0.22173894       0.05672376       0.38718354 </v>
   <v>       0.27761218       0.11151646       0.31162647 </v>
   <v>       0.38879688       0.05603889       0.38736859 </v>
   <v>       0.38822776       0.22260560       0.38768901 </v>
   <v>       0.49968234       0.16761949       0.46279293 </v>
   <v>       0.44518069       0.11368468       0.54088572 </v>
   <v>       0.27638764       0.11454975       0.54103081 </v>
   <v>       0.11156907       0.27731226       0.54140740 </v>
   <v>       0.27954048       0.27971215       0.54179903 </v>
   <v>       0.11355127       0.44416062       0.54162731 </v>
   <v>       0.16673367       0.49960090       0.46420491 </v>
   <v>       0.33305516       0.33493636       0.46444998 </v>
   <v>       0.49996434       0.50027081       0.23562115 </v>
   <v>       0.44481778       0.44411698       0.31149672 </v>
   <v>       0.72181479       0.05614278       0.38747196 </v>
   <v>       0.66684218      -0.00090601       0.46278161 </v>
   <v>       0.83385238       0.49967096       0.46355265 </v>
   <v>       0.88971760       0.55464763       0.38767383 </v>
   <v>       0.44392907       0.77721007       0.08271488 </v>
   <v>       0.38855750       0.72232115       0.16017677 </v>
   <v>       0.33375672       0.66613248       0.23597167 </v>
   <v>       0.16675381       0.83339559       0.23564678 </v>
   <v>       0.11139365       0.77768808       0.31142802 </v>
   <v>       0.05640851       0.72160939       0.38787271 </v>
   <v>       0.99866889       0.66738703       0.46290565 </v>
   <v>       0.61093902       0.61061139       0.08242984 </v>
   <v>       0.55537525       0.55582670       0.16017023 </v>
   <v>       0.22213289       0.88894574       0.16025680 </v>
   <v>       0.77777024       0.44428595       0.08280330 </v>
   <v>       0.94446333       0.44436109       0.08279703 </v>
   <v>       0.94453830       0.61084469       0.08293041 </v>
   <v>       0.88907931       0.55535853       0.16050009 </v>
   <v>       0.72224506       0.72244538       0.16042642 </v>
   <v>       0.66702742       0.66632566       0.23603402 </v>
   <v>       0.61113534       0.61074515       0.31138889 </v>
   <v>       0.55564396       0.55560937       0.38760995 </v>
   <v>       0.50115867       0.50108982       0.46082451 </v>
   <v>       0.55540724       0.38715177       0.38791588 </v>
   <v>       0.72236770       0.38847460       0.38778690 </v>
   <v>       0.66612764       0.33275050       0.46360515 </v>
   <v>       0.60581028       0.28230329       0.54083625 </v>
   <v>       0.77495252       0.11349199       0.54119518 </v>
   <v>       0.83293301       0.16712828       0.46368604 </v>
   <v>       0.88833018       0.22222044       0.38772228 </v>
   <v>       0.94449396       0.27763809       0.08224950 </v>
   <v>       0.94449136       0.11119870       0.08270474 </v>
   <v>       0.88903928       0.22224701       0.16036228 </v>
   <v>       0.50017097       0.83337861       0.23582876 </v>
   <v>       0.44389173       0.77807670       0.31128225 </v>
   <v>       0.77837939       0.77793090       0.08266868 </v>
   <v>       0.61085611       0.94488225       0.08289415 </v>
   <v>       0.55575801       0.88884436       0.16057120 </v>
   <v>       0.77780607       0.11109153       0.08254435 </v>
   <v>       0.61141934       0.11123018       0.08244072 </v>
   <v>       0.44394344       0.27812867       0.08261495 </v>
   <v>       0.27748338       0.44483570       0.08280118 </v>
   <v>       0.11149933       0.61098276       0.08262008 </v>
   <v>       0.05543916       0.55591338       0.16009914 </v>
   <v>       0.05568637       0.72239531       0.16023263 </v>
   <v>      -0.00004898       0.66617393       0.23604046 </v>
   <v>       0.61116436       0.27813920       0.08258091 </v>
   <v>       0.55577652       0.22184811       0.16011113 </v>
   <v>       0.50032495       0.16610697       0.23599221 </v>
   <v>       0.44436521       0.11120535       0.31166775 </v>
   <v>       0.38876947       0.38930392       0.16054046 </v>
   <v>       0.33320684       0.33270949       0.23585872 </v>
   <v>       0.44407926       0.44578187       0.08297198 </v>
   <v>       0.27841429       0.61101272       0.08252635 </v>
   <v>       0.22210711       0.55590443       0.16029677 </v>
   <v>       0.11177748       0.77741409       0.08270332 </v>
   <v>       0.66641984       0.00019320       0.23590659 </v>
   <v>       0.77789858       0.44416135       0.31151308 </v>
   <v>       0.11125775       0.44434896       0.31165646 </v>
   <v>       0.05596097       0.38843001       0.38783379 </v>
   <v>       0.00021087       0.33277009       0.46373571 </v>
   <v>       0.16633536       0.16745805       0.46313000 </v>
   <v>       0.10971730       0.11255195       0.54033408 </v>
   <v>       0.55545464       0.89017552       0.38724805 </v>
   <v>       0.22354126       0.55522551       0.38880474 </v>
   <v>       0.22237777       0.22219032       0.38764704 </v>
   <v>       0.33035108       0.67373150       0.45818082 </v>
   <v>       0.33289227       0.00173235       0.46305029 </v>
   <v>       0.46029673       0.44210036       0.57222314 </v>
   <v>       0.11095619       0.44435711       0.08272786 </v>
   <v>       0.11104319       0.27771818       0.08226547 </v>
   <v>       0.05543629       0.22223559       0.16000901 </v>
   <v>       0.00026593       0.16657042       0.23594094 </v>
   <v>       0.16657638       0.00009452       0.23608792 </v>
   <v>       0.22204201       0.05578088       0.16048069 </v>
   <v>       0.27782064       0.11103579       0.08264268 </v>
   <v>       0.38847927       0.05596354       0.16057086 </v>
   <v>       0.33340911      -0.00003660       0.23596324 </v>
   <v>       0.16646599       0.16679957       0.23588417 </v>
   <v>       0.11088091       0.11131230       0.31166929 </v>
   <v>       0.05464214       0.05635288       0.38729051 </v>
   <v>       0.99867274       0.00119023       0.46308028 </v>
   <v>       0.27794214       0.27751454       0.08255651 </v>
   <v>       0.22197648       0.22225141       0.16037369 </v>
   <v>       0.05567872       0.38844632       0.16028320 </v>
   <v>       0.00019828       0.33312903       0.23591743 </v>
   <v>       0.44442728       0.11097328       0.08258692 </v>
   <v>       0.11081383       0.11139440       0.08221420 </v>
   <v>       0.05574071       0.05592210       0.16059194 </v>
   <v>      -0.00005846      -0.00014799       0.23585403 </v>
   <v>       0.94227687       0.94600699       0.54134529 </v>
   <v>       0.39044713       0.57149388       0.56728373 </v>
   <v>       0.37838469       0.40169794       0.58844390 </v>
  </varray>
 </structure>
</modeling>
