 334 334   0   0
  0.1751939E+02  0.1441508E-08  0.1441508E-08  0.3251625E-08  0.2000000E-15
   1.0000000000000000E-004
  CAR 
 NiAl                                    
     10.76162884    -30.39011691  301     -0.42705768      1.00000000
    -30.390  0.0000E+00  0.0000E+00
    -30.253  0.0000E+00  0.0000E+00
    -30.116  0.0000E+00  0.0000E+00
    -29.979  0.0000E+00  0.0000E+00
    -29.841  0.0000E+00  0.0000E+00
    -29.704  0.0000E+00  0.0000E+00
    -29.567  0.0000E+00  0.0000E+00
    -29.430  0.0000E+00  0.0000E+00
    -29.293  0.0000E+00  0.0000E+00
    -29.156  0.0000E+00  0.0000E+00
    -29.018  0.0000E+00  0.0000E+00
    -28.881  0.0000E+00  0.0000E+00
    -28.744  0.3858E-10  0.5292E-11
    -28.607  0.2443E-02  0.3351E-03
    -28.470  0.3330E+00  0.4601E-01
    -28.333  0.2906E-01  0.5000E-01
    -28.195  0.2268E-07  0.5000E-01
    -28.058  0.0000E+00  0.5000E-01
    -27.921  0.2423E-14  0.5000E-01
    -27.784  0.2435E-04  0.5000E-01
    -27.647  0.2900E+00  0.8978E-01
    -27.509  0.1144E+01  0.2467E+00
    -27.372  0.2414E-01  0.2500E+00
    -27.235  0.1214E-07  0.2500E+00
    -27.098  0.6795E-10  0.2500E+00
    -26.961  0.2817E-02  0.2504E+00
    -26.824  0.3310E+00  0.2958E+00
    -26.686  0.4932E+00  0.3634E+00
    -26.549  0.7215E+00  0.4624E+00
    -26.412  0.6383E+00  0.5500E+00
    -26.275  0.1404E-02  0.5502E+00
    -26.138  0.7039E+00  0.6467E+00
    -26.001  0.4144E+00  0.7036E+00
    -25.863  0.7014E+00  0.7998E+00
    -25.726  0.1018E+01  0.9394E+00
    -25.589  0.1150E+01  0.1097E+01
    -25.452  0.3222E-01  0.1102E+01
    -25.315  0.7018E+00  0.1198E+01
    -25.178  0.3807E+00  0.1250E+01
    -25.040  0.2498E-02  0.1250E+01
    -24.903  0.8703E+00  0.1370E+01
    -24.766  0.2208E+00  0.1400E+01
    -24.629  0.4225E-05  0.1400E+01
    -24.492  0.0000E+00  0.1400E+01
    -24.355  0.0000E+00  0.1400E+01
    -24.217  0.0000E+00  0.1400E+01
    -24.080  0.0000E+00  0.1400E+01
    -23.943  0.0000E+00  0.1400E+01
    -23.806  0.0000E+00  0.1400E+01
    -23.669  0.0000E+00  0.1400E+01
    -23.531  0.0000E+00  0.1400E+01
    -23.394  0.0000E+00  0.1400E+01
    -23.257  0.0000E+00  0.1400E+01
    -23.120  0.0000E+00  0.1400E+01
    -22.983  0.4856E-15  0.1400E+01
    -22.846  0.1035E-04  0.1400E+01
    -22.708  0.1611E+00  0.1422E+01
    -22.571  0.2034E+00  0.1450E+01
    -22.434  0.3438E-04  0.1450E+01
    -22.297  0.0000E+00  0.1450E+01
    -22.160  0.0000E+00  0.1450E+01
    -22.023  0.0000E+00  0.1450E+01
    -21.885  0.0000E+00  0.1450E+01
    -21.748  0.0000E+00  0.1450E+01
    -21.611  0.0000E+00  0.1450E+01
    -21.474  0.0000E+00  0.1450E+01
    -21.337  0.0000E+00  0.1450E+01
    -21.200  0.2440E-07  0.1450E+01
    -21.062  0.4687E-01  0.1456E+01
    -20.925  0.6755E+00  0.1549E+01
    -20.788  0.6666E-02  0.1550E+01
    -20.651  0.1603E-09  0.1550E+01
    -20.514  0.5055E-13  0.1550E+01
    -20.377  0.1120E-03  0.1550E+01
    -20.239  0.3006E+00  0.1591E+01
    -20.102  0.7875E+00  0.1699E+01
    -19.965  0.5379E-02  0.1700E+01
    -19.828  0.4227E-02  0.1701E+01
    -19.691  0.1434E+00  0.1720E+01
    -19.553  0.4875E+00  0.1787E+01
    -19.416  0.3006E+00  0.1828E+01
    -19.279  0.1168E+01  0.1989E+01
    -19.142  0.3123E+00  0.2031E+01
    -19.005  0.1088E+01  0.2181E+01
    -18.868  0.1736E+01  0.2419E+01
    -18.730  0.1132E+01  0.2574E+01
    -18.593  0.1761E+01  0.2816E+01
    -18.456  0.1702E+01  0.3049E+01
    -18.319  0.1790E+01  0.3295E+01
    -18.182  0.1769E+01  0.3537E+01
    -18.045  0.1967E+01  0.3807E+01
    -17.907  0.1981E+01  0.4079E+01
    -17.770  0.3763E+01  0.4595E+01
    -17.633  0.4536E+01  0.5217E+01
    -17.496  0.5317E+01  0.5947E+01
    -17.359  0.5538E+01  0.6706E+01
    -17.222  0.6164E+01  0.7552E+01
    -17.084  0.5636E+01  0.8325E+01
    -16.947  0.7410E+01  0.9341E+01
    -16.810  0.3953E+01  0.9884E+01
    -16.673  0.4846E+00  0.9950E+01
    -16.536  0.3060E+00  0.9992E+01
    -16.399  0.5774E-01  0.1000E+02
    -16.261  0.2103E-02  0.1000E+02
    -16.124  0.6347E+00  0.1009E+02
    -15.987  0.4421E+00  0.1015E+02
    -15.850  0.1469E-01  0.1015E+02
    -15.713  0.4499E+00  0.1021E+02
    -15.575  0.1039E+01  0.1035E+02
    -15.438  0.9838E+00  0.1049E+02
    -15.301  0.4435E+00  0.1055E+02
    -15.164  0.1213E-02  0.1055E+02
    -15.027  0.3171E+00  0.1059E+02
    -14.890  0.1027E+01  0.1073E+02
    -14.752  0.7956E+00  0.1084E+02
    -14.615  0.4101E+00  0.1090E+02
    -14.478  0.3940E-03  0.1090E+02
    -14.341  0.1163E+00  0.1092E+02
    -14.204  0.1323E+01  0.1110E+02
    -14.067  0.1370E+01  0.1129E+02
    -13.929  0.1070E+00  0.1130E+02
    -13.792  0.6761E-06  0.1130E+02
    -13.655  0.0000E+00  0.1130E+02
    -13.518  0.0000E+00  0.1130E+02
    -13.381  0.0000E+00  0.1130E+02
    -13.244  0.0000E+00  0.1130E+02
    -13.106  0.0000E+00  0.1130E+02
    -12.969  0.0000E+00  0.1130E+02
    -12.832  0.0000E+00  0.1130E+02
    -12.695  0.0000E+00  0.1130E+02
    -12.558  0.0000E+00  0.1130E+02
    -12.421  0.0000E+00  0.1130E+02
    -12.283  0.0000E+00  0.1130E+02
    -12.146  0.0000E+00  0.1130E+02
    -12.009  0.0000E+00  0.1130E+02
    -11.872  0.0000E+00  0.1130E+02
    -11.735  0.0000E+00  0.1130E+02
    -11.597  0.0000E+00  0.1130E+02
    -11.460  0.0000E+00  0.1130E+02
    -11.323  0.0000E+00  0.1130E+02
    -11.186  0.0000E+00  0.1130E+02
    -11.049  0.0000E+00  0.1130E+02
    -10.912  0.0000E+00  0.1130E+02
    -10.774  0.0000E+00  0.1130E+02
    -10.637  0.0000E+00  0.1130E+02
    -10.500  0.2253E-11  0.1130E+02
    -10.363  0.5914E-03  0.1130E+02
    -10.226  0.3569E+00  0.1135E+02
    -10.089  0.5752E+00  0.1143E+02
     -9.951  0.5026E+00  0.1150E+02
     -9.814  0.2663E+00  0.1153E+02
     -9.677  0.8067E+00  0.1164E+02
     -9.540  0.3206E+00  0.1169E+02
     -9.403  0.3604E+00  0.1174E+02
     -9.266  0.8924E+00  0.1186E+02
     -9.128  0.9334E+00  0.1199E+02
     -8.991  0.9639E+00  0.1212E+02
     -8.854  0.7684E+00  0.1223E+02
     -8.717  0.8627E+00  0.1234E+02
     -8.580  0.1263E+01  0.1252E+02
     -8.443  0.1218E+01  0.1268E+02
     -8.305  0.1299E+01  0.1286E+02
     -8.168  0.5798E+00  0.1294E+02
     -8.031  0.3709E+00  0.1299E+02
     -7.894  0.3551E+00  0.1304E+02
     -7.757  0.1123E+01  0.1320E+02
     -7.619  0.4794E+00  0.1326E+02
     -7.482  0.9608E+00  0.1339E+02
     -7.345  0.1026E+01  0.1353E+02
     -7.208  0.1254E+01  0.1371E+02
     -7.071  0.1503E+01  0.1391E+02
     -6.934  0.2058E+01  0.1419E+02
     -6.796  0.3285E+01  0.1464E+02
     -6.659  0.3263E+01  0.1509E+02
     -6.522  0.2803E+01  0.1548E+02
     -6.385  0.3901E+01  0.1601E+02
     -6.248  0.4113E+01  0.1658E+02
     -6.111  0.2969E+01  0.1698E+02
     -5.973  0.3621E+01  0.1748E+02
     -5.836  0.3107E+01  0.1791E+02
     -5.699  0.3270E+01  0.1835E+02
     -5.562  0.3388E+01  0.1882E+02
     -5.425  0.3698E+01  0.1933E+02
     -5.288  0.2649E+01  0.1969E+02
     -5.150  0.3180E+01  0.2013E+02
     -5.013  0.2753E+01  0.2050E+02
     -4.876  0.3724E+01  0.2102E+02
     -4.739  0.3341E+01  0.2147E+02
     -4.602  0.4311E+01  0.2206E+02
     -4.465  0.4278E+01  0.2265E+02
     -4.327  0.4084E+01  0.2321E+02
     -4.190  0.3223E+01  0.2365E+02
     -4.053  0.2415E+01  0.2399E+02
     -3.916  0.2806E+01  0.2437E+02
     -3.779  0.3474E+01  0.2485E+02
     -3.641  0.3568E+01  0.2534E+02
     -3.504  0.3163E+01  0.2577E+02
     -3.367  0.2998E+01  0.2618E+02
     -3.230  0.3775E+01  0.2670E+02
     -3.093  0.4110E+01  0.2726E+02
     -2.956  0.4224E+01  0.2784E+02
     -2.818  0.5306E+01  0.2857E+02
     -2.681  0.5143E+01  0.2928E+02
     -2.544  0.4874E+01  0.2994E+02
     -2.407  0.4965E+01  0.3063E+02
     -2.270  0.5657E+01  0.3140E+02
     -2.133  0.6814E+01  0.3234E+02
     -1.995  0.7165E+01  0.3332E+02
     -1.858  0.7252E+01  0.3431E+02
     -1.721  0.7470E+01  0.3534E+02
     -1.584  0.5580E+01  0.3610E+02
     -1.447  0.6395E+01  0.3698E+02
     -1.310  0.5262E+01  0.3770E+02
     -1.172  0.6084E+01  0.3854E+02
     -1.035  0.5487E+01  0.3929E+02
     -0.898  0.4087E+01  0.3985E+02
     -0.761  0.6625E+01  0.4076E+02
     -0.624  0.5075E+01  0.4146E+02
     -0.487  0.3230E+01  0.4190E+02
     -0.349  0.1287E+01  0.4207E+02
     -0.212  0.7628E+00  0.4218E+02
     -0.075  0.1098E+01  0.4233E+02
      0.062  0.5863E+00  0.4241E+02
      0.199  0.9921E+00  0.4255E+02
      0.337  0.3934E-01  0.4255E+02
      0.474  0.8709E+00  0.4267E+02
      0.611  0.1020E+01  0.4281E+02
      0.748  0.2920E+00  0.4285E+02
      0.885  0.1037E+01  0.4299E+02
      1.022  0.1080E+01  0.4314E+02
      1.160  0.1772E+00  0.4317E+02
      1.297  0.6936E+00  0.4326E+02
      1.434  0.2867E+00  0.4330E+02
      1.571  0.6545E+00  0.4339E+02
      1.708  0.7135E-01  0.4340E+02
      1.845  0.3150E+00  0.4344E+02
      1.983  0.4846E-01  0.4345E+02
      2.120  0.1146E-06  0.4345E+02
      2.257  0.0000E+00  0.4345E+02
      2.394  0.0000E+00  0.4345E+02
      2.531  0.0000E+00  0.4345E+02
      2.668  0.0000E+00  0.4345E+02
      2.806  0.0000E+00  0.4345E+02
      2.943  0.0000E+00  0.4345E+02
      3.080  0.4675E-13  0.4345E+02
      3.217  0.1567E-03  0.4345E+02
      3.354  0.6349E+00  0.4354E+02
      3.491  0.4584E+00  0.4360E+02
      3.629  0.2849E-04  0.4360E+02
      3.766  0.0000E+00  0.4360E+02
      3.903  0.5231E-06  0.4360E+02
      4.040  0.1262E+00  0.4362E+02
      4.177  0.6696E+00  0.4371E+02
      4.315  0.2452E-01  0.4371E+02
      4.452  0.3755E+00  0.4376E+02
      4.589  0.3480E+00  0.4381E+02
      4.726  0.9083E+00  0.4394E+02
      4.863  0.5027E+00  0.4401E+02
      5.000  0.7100E+00  0.4410E+02
      5.138  0.2692E+00  0.4414E+02
      5.275  0.1703E+01  0.4437E+02
      5.412  0.1175E+01  0.4453E+02
      5.549  0.6904E+00  0.4463E+02
      5.686  0.5597E+00  0.4471E+02
      5.823  0.3747E+00  0.4476E+02
      5.961  0.9066E+00  0.4488E+02
      6.098  0.1065E+01  0.4503E+02
      6.235  0.8062E+00  0.4514E+02
      6.372  0.7015E+00  0.4523E+02
      6.509  0.1048E+01  0.4538E+02
      6.646  0.1735E+01  0.4562E+02
      6.784  0.1033E+01  0.4576E+02
      6.921  0.1093E+01  0.4591E+02
      7.058  0.1482E+01  0.4611E+02
      7.195  0.2727E+01  0.4649E+02
      7.332  0.2171E+01  0.4678E+02
      7.469  0.1216E+01  0.4695E+02
      7.607  0.1646E+01  0.4718E+02
      7.744  0.2000E+01  0.4745E+02
      7.881  0.1859E+01  0.4770E+02
      8.018  0.1856E+01  0.4796E+02
      8.155  0.2620E+01  0.4832E+02
      8.293  0.2770E+01  0.4870E+02
      8.430  0.2146E+01  0.4899E+02
      8.567  0.3145E+01  0.4942E+02
      8.704  0.2968E+01  0.4983E+02
      8.841  0.3404E+01  0.5030E+02
      8.978  0.7361E+00  0.5040E+02
      9.116  0.2198E-02  0.5040E+02
      9.253  0.3118E-10  0.5040E+02
      9.390  0.0000E+00  0.5040E+02
      9.527  0.0000E+00  0.5040E+02
      9.664  0.0000E+00  0.5040E+02
      9.801  0.0000E+00  0.5040E+02
      9.939  0.0000E+00  0.5040E+02
     10.076  0.0000E+00  0.5040E+02
     10.213  0.0000E+00  0.5040E+02
     10.350  0.0000E+00  0.5040E+02
     10.487  0.0000E+00  0.5040E+02
     10.624  0.0000E+00  0.5040E+02
     10.762  0.0000E+00  0.5040E+02
