         342
 Energy:  -2116.3965492999996     
 X   0.00000000       0.00000000       0.00000000    
 X   14.4150839       0.00000000       0.00000000    
 X  -7.20754194       12.4838276       0.00000000    
 X   0.00000000       0.00000000       32.5162544    
 X   7.20754194       12.4838276       0.00000000    
 X   14.4150839       0.00000000       32.5162544    
 X  -7.20754194       12.4838276       32.5162544    
 X   7.20754194       12.4838276       32.5162544    
 Al   0.00000000       0.00000000       1.93994999    
 Al  -0.00000000       2.77418995      0.246099994    
 Al  -0.00000000       2.77418995       4.12598991    
 Al   2.40251994       1.38708997       2.43213010    
 Al   2.40251994       1.38708997       6.31202984    
 Al   0.00000000       0.00000000       4.61817980    
 Al   0.00000000       0.00000000       8.49806976    
 Al  -0.00000000       2.77418995       6.80423021    
 Al  -0.00000000       2.77418995       10.6841202    
 Al   2.40251994       1.38708997       8.99026012    
 Al   2.40251994       1.38708997       12.8701496    
 Al   0.00000000       0.00000000       11.1763096    
 Al  -2.40250993       4.16128016       1.93994999    
 Al  -2.40251994       6.93546009      0.246099994    
 Al  -2.40251994       6.93546009       4.12598991    
 Al   0.00000000       5.54836988       2.43213010    
 Al   0.00000000       5.54836988       6.31202984    
 Al  -2.40250993       4.16128016       4.61817980    
 Al  -2.40250993       4.16128016       8.49806976    
 Al  -2.40251994       6.93546009       6.80423021    
 Al  -2.40251994       6.93546009       10.6841202    
 Al   0.00000000       5.54836988       8.99026012    
 Al   0.00000000       5.54836988       12.8701496    
 Al  -2.40250993       4.16128016       11.1763096    
 Al  -4.80502987       8.32254982       1.93994999    
 Al  -4.80502987       11.0967398      0.246099994    
 Al  -4.80502987       11.0967398       4.12598991    
 Al  -2.40250993       9.70963955       2.43213010    
 Al  -2.40250993       9.70963955       6.31202984    
 Al  -4.80502987       8.32254982       4.61817980    
 Al  -4.80502987       8.32254982       8.49806976    
 Al  -4.80502987       11.0967398       6.80423021    
 Al  -4.80502987       11.0967398       10.6841202    
 Al  -2.40250993       9.70963955       8.99026012    
 Al  -2.40250993       9.70963955       12.8701496    
 Al  -4.80502987       8.32254982       11.1763096    
 Al   4.80502987       0.00000000       1.93994999    
 Al   4.80502987       2.77418995      0.246099994    
 Al   4.80502987       2.77418995       4.12598991    
 Al   7.20754004       1.38708997       2.43213010    
 Al   7.20754004       1.38708997       6.31202984    
 Al   4.80502987       0.00000000       4.61817980    
 Al   4.80502987       0.00000000       8.49806976    
 Al   4.80502987       2.77418995       6.80423021    
 Al   4.80502987       2.77418995       10.6841202    
 Al   7.20754004       1.38708997       8.99026012    
 Al   7.20754004       1.38708997       12.8701496    
 Al   4.80502987       0.00000000       11.1763096    
 Al   2.40250993       4.16128016       1.93994999    
 Al   2.40250993       6.93546009      0.246099994    
 Al   2.40250993       6.93546009       4.12598991    
 Al   4.80502987       5.54836988       2.43213010    
 Al   4.80502987       5.54836988       6.31202984    
 Al   2.40250993       4.16128016       4.61817980    
 Al   2.40250993       4.16128016       8.49806976    
 Al   2.40250993       6.93546009       6.80423021    
 Al   2.40250993       6.93546009       10.6841202    
 Al   4.80502987       5.54836988       8.99026012    
 Al   4.80502987       5.54836988       12.8701496    
 Al   2.40250993       4.16128016       11.1763096    
 Al   0.00000000       8.32254982       1.93994999    
 Al  -0.00000000       11.0967398      0.246099994    
 Al  -0.00000000       11.0967398       4.12598991    
 Al   2.40251994       9.70963955       2.43213010    
 Al   2.40251994       9.70963955       6.31202984    
 Al   0.00000000       8.32254982       4.61817980    
 Al   0.00000000       8.32254982       8.49806976    
 Al  -0.00000000       11.0967398       6.80423021    
 Al  -0.00000000       11.0967398       10.6841202    
 Al   2.40251994       9.70963955       8.99026012    
 Al   2.40251994       9.70963955       12.8701496    
 Al   0.00000000       8.32254982       11.1763096    
 Al   9.61005974       0.00000000       1.93994999    
 Al   9.61005020       2.77418995      0.246099994    
 Al   9.61005020       2.77418995       4.12598991    
 Al   12.0125704       1.38708997       2.43213010    
 Al   12.0125704       1.38708997       6.31202984    
 Al   9.61005974       0.00000000       4.61817980    
 Al   9.61005974       0.00000000       8.49806976    
 Al   9.61005020       2.77418995       6.80423021    
 Al   9.61005020       2.77418995       10.6841202    
 Al   12.0125704       1.38708997       8.99026012    
 Al   12.0125704       1.38708997       12.8701496    
 Al   9.61005974       0.00000000       11.1763096    
 Al   7.20754004       4.16128016       1.93994999    
 Al   7.20754004       6.93546009      0.246099994    
 Al   7.20754004       6.93546009       4.12598991    
 Al   9.61005974       5.54836988       2.43213010    
 Al   9.61005974       5.54836988       6.31202984    
 Al   7.20754004       4.16128016       4.61817980    
 Al   7.20754004       4.16128016       8.49806976    
 Al   7.20754004       6.93546009       6.80423021    
 Al   7.20754004       6.93546009       10.6841202    
 Al   9.61005974       5.54836988       8.99026012    
 Al   9.61005974       5.54836988       12.8701496    
 Al   7.20754004       4.16128016       11.1763096    
 Al   4.80502987       8.32254982       1.93994999    
 Al   4.80502987       11.0967398      0.246099994    
 Al   4.80502987       11.0967398       4.12598991    
 Al   7.20754004       9.70963955       2.43213010    
 Al   7.20754004       9.70963955       6.31202984    
 Al   4.80502987       8.32254982       4.61817980    
 Al   4.80502987       8.32254982       8.49806976    
 Al   4.80502987       11.0967398       6.80423021    
 Al   4.80502987       11.0967398       10.6841202    
 Al   7.20754004       9.70963955       8.99026012    
 Al   7.20754004       9.70963955       12.8701496    
 Al   4.80502987       8.32254982       11.1763096    
 O    1.47104001       0.00000000       3.27905989    
 O    3.13804007      0.113130003       1.09301996    
 O  -0.735520005       1.27395999       3.27905989    
 O    1.66699004       2.88732004       3.27905989    
 O    3.13804007       2.66105008       1.09301996    
 O   0.931479990       1.38708997       1.09301996    
 O    3.87355995       1.38708997       7.65114021    
 O   0.735520005       1.50022995       5.46510983    
 O    1.66700006       2.66105008       7.65114021    
 O    1.66700006      0.113130003       7.65114021    
 O   0.735520005       4.04814005       5.46510983    
 O   -1.47104001       2.77418995       5.46510983    
 O    1.47104001       2.77418995       12.0232401    
 O   -1.66699004       2.88732004       9.83718967    
 O  -0.735520005       4.04814005       12.0232401    
 O  -0.735520005       1.50022995       12.0232401    
 O   0.735520005       1.27395999       9.83718967    
 O    3.33399010       0.00000000       9.83718967    
 O  -0.931469977       4.16128016       3.27905989    
 O   0.735520005       4.27440977       1.09301996    
 O   -3.13803005       5.43522978       3.27905989    
 O  -0.735520005       7.04859018       3.27905989    
 O   0.735520005       6.82231998       1.09301996    
 O   -1.47104001       5.54836988       1.09301996    
 O    1.47104001       5.54836988       7.65114021    
 O   -1.66700006       5.66149998       5.46510983    
 O  -0.735520005       6.82231998       7.65114021    
 O  -0.735520005       4.27440977       7.65114021    
 O   -1.66700006       8.20942020       5.46510983    
 O   -3.87355995       6.93546009       5.46510983    
 O  -0.931479990       6.93546009       12.0232401    
 O   -4.06950998       7.04859018       9.83718967    
 O   -3.13804007       8.20942020       12.0232401    
 O   -3.13804007       5.66149998       12.0232401    
 O   -1.66699004       5.43522978       9.83718967    
 O   0.931469977       4.16128016       9.83718967    
 O   -3.33399010       8.32254982       3.27905989    
 O   -1.66699004       8.43568039       1.09301996    
 O   -5.54055023       9.59650993       3.27905989    
 O   -3.13803005       11.2098703       3.27905989    
 O   -1.66699004       10.9835997       1.09301996    
 O   -3.87354994       9.70963955       1.09301996    
 O  -0.931469977       9.70963955       7.65114021    
 O   -4.06950998       9.82277966       5.46510983    
 O   -3.13803005       10.9835997       7.65114021    
 O   -3.13803005       8.43568039       7.65114021    
 O   -4.06950998       12.3706999       5.46510983    
 O   -6.27607012       11.0967398       5.46510983    
 O   -3.33399010       11.0967398       12.0232401    
 O   -6.47202015       11.2098703       9.83718967    
 O   -5.54055023       12.3706999       12.0232401    
 O   -5.54055023       9.82277966       12.0232401    
 O   -4.06950998       9.59650993       9.83718967    
 O   -1.47104001       8.32254982       9.83718967    
 O    6.27607012       0.00000000       3.27905989    
 O    7.94305992      0.113130003       1.09301996    
 O    4.06950998       1.27395999       3.27905989    
 O    6.47202015       2.88732004       3.27905989    
 O    7.94305992       2.66105008       1.09301996    
 O    5.73649979       1.38708997       1.09301996    
 O    8.67858028       1.38708997       7.65114021    
 O    5.54055023       1.50022995       5.46510983    
 O    6.47202015       2.66105008       7.65114021    
 O    6.47202015      0.113130003       7.65114021    
 O    5.54055023       4.04814005       5.46510983    
 O    3.33399010       2.77418995       5.46510983    
 O    6.27607012       2.77418995       12.0232401    
 O    3.13803005       2.88732004       9.83718967    
 O    4.06950998       4.04814005       12.0232401    
 O    4.06950998       1.50022995       12.0232401    
 O    5.54055023       1.27395999       9.83718967    
 O    8.13901997       0.00000000       9.83718967    
 O    3.87354994       4.16128016       3.27905989    
 O    5.54055023       4.27440977       1.09301996    
 O    1.66699004       5.43522978       3.27905989    
 O    4.06950998       7.04859018       3.27905989    
 O    5.54055023       6.82231998       1.09301996    
 O    3.33399010       5.54836988       1.09301996    
 O    6.27607012       5.54836988       7.65114021    
 O    3.13803005       5.66149998       5.46510983    
 O    4.06950998       6.82231998       7.65114021    
 O    4.06950998       4.27440977       7.65114021    
 O    3.13803005       8.20942020       5.46510983    
 O   0.931469977       6.93546009       5.46510983    
 O    3.87354994       6.93546009       12.0232401    
 O   0.735520005       7.04859018       9.83718967    
 O    1.66699004       8.20942020       12.0232401    
 O    1.66699004       5.66149998       12.0232401    
 O    3.13803005       5.43522978       9.83718967    
 O    5.73649979       4.16128016       9.83718967    
 O    1.47104001       8.32254982       3.27905989    
 O    3.13804007       8.43568039       1.09301996    
 O  -0.735520005       9.59650993       3.27905989    
 O    1.66699004       11.2098703       3.27905989    
 O    3.13804007       10.9835997       1.09301996    
 O   0.931479990       9.70963955       1.09301996    
 O    3.87355995       9.70963955       7.65114021    
 O   0.735520005       9.82277966       5.46510983    
 O    1.66700006       10.9835997       7.65114021    
 O    1.66700006       8.43568039       7.65114021    
 O   0.735520005       12.3706999       5.46510983    
 O   -1.47104001       11.0967398       5.46510983    
 O    1.47104001       11.0967398       12.0232401    
 O   -1.66699004       11.2098703       9.83718967    
 O  -0.735520005       12.3706999       12.0232401    
 O  -0.735520005       9.82277966       12.0232401    
 O   0.735520005       9.59650993       9.83718967    
 O    3.33399010       8.32254982       9.83718967    
 O    11.0811005       0.00000000       3.27905989    
 O    12.7480898      0.113130003       1.09301996    
 O    8.87454033       1.27395999       3.27905989    
 O    11.2770500       2.88732004       3.27905989    
 O    12.7480898       2.66105008       1.09301996    
 O    10.5415297       1.38708997       1.09301996    
 O    13.4836102       1.38708997       7.65114021    
 O    10.3455696       1.50022995       5.46510983    
 O    11.2770500       2.66105008       7.65114021    
 O    11.2770500      0.113130003       7.65114021    
 O    10.3455696       4.04814005       5.46510983    
 O    8.13901043       2.77418995       5.46510983    
 O    11.0810900       2.77418995       12.0232401    
 O    7.94305992       2.88732004       9.83718967    
 O    8.87452984       4.04814005       12.0232401    
 O    8.87452984       1.50022995       12.0232401    
 O    10.3455801       1.27395999       9.83718967    
 O    12.9440403       0.00000000       9.83718967    
 O    8.67858028       4.16128016       3.27905989    
 O    10.3455801       4.27440977       1.09301996    
 O    6.47202015       5.43522978       3.27905989    
 O    8.87454033       7.04859018       3.27905989    
 O    10.3455801       6.82231998       1.09301996    
 O    8.13901997       5.54836988       1.09301996    
 O    11.0811005       5.54836988       7.65114021    
 O    7.94305992       5.66149998       5.46510983    
 O    8.87454033       6.82231998       7.65114021    
 O    8.87454033       4.27440977       7.65114021    
 O    7.94305992       8.20942020       5.46510983    
 O    5.73649979       6.93546009       5.46510983    
 O    8.67858028       6.93546009       12.0232401    
 O    5.54055023       7.04859018       9.83718967    
 O    6.47202015       8.20942020       12.0232401    
 O    6.47202015       5.66149998       12.0232401    
 O    7.94305992       5.43522978       9.83718967    
 O    10.5415297       4.16128016       9.83718967    
 O    6.27607012       8.32254982       3.27905989    
 O    7.94305992       8.43568039       1.09301996    
 O    4.06950998       9.59650993       3.27905989    
 O    6.47202015       11.2098703       3.27905989    
 O    7.94305992       10.9835997       1.09301996    
 O    5.73649979       9.70963955       1.09301996    
 O    8.67858028       9.70963955       7.65114021    
 O    5.54055023       9.82277966       5.46510983    
 O    6.47202015       10.9835997       7.65114021    
 O    6.47202015       8.43568039       7.65114021    
 O    5.54055023       12.3706999       5.46510983    
 O    3.33399010       11.0967398       5.46510983    
 O    6.27607012       11.0967398       12.0232401    
 O    3.13803005       11.2098703       9.83718967    
 O    4.06950998       12.3706999       12.0232401    
 O    4.06950998       9.82277966       12.0232401    
 O    5.54055023       9.59650993       9.83718967    
 O    8.13901997       8.32254982       9.83718967    
 O    0.00000000       0.00000000       14.2701502    
 O  -0.900940001       1.56048000       14.2701502    
 O   -1.80189002       3.12096000       14.2701502    
 O   -2.70283008       4.68143988       14.2701502    
 O   -3.60377002       6.24190998       14.2701502    
 O   -4.50471020       7.80239010       14.2701502    
 O   -5.40566015       9.36287022       14.2701502    
 O   -6.30660009       10.9233503       14.2701502    
 O    1.80189002       0.00000000       14.2701502    
 O   0.900940001       1.56048000       14.2701502    
 O    0.00000000       3.12096000       14.2701502    
 O  -0.900940001       4.68143988       14.2701502    
 O   -1.80189002       6.24190998       14.2701502    
 O   -2.70283008       7.80239010       14.2701502    
 O   -3.60377002       9.36287022       14.2701502    
 O   -4.50471020       10.9233503       14.2701502    
 O    3.60377002       0.00000000       14.2701502    
 O    2.70283008       1.56048000       14.2701502    
 O    1.80189002       3.12096000       14.2701502    
 O   0.900940001       4.68143988       14.2701502    
 O    0.00000000       6.24190998       14.2701502    
 O  -0.900940001       7.80239010       14.2701502    
 O   -1.80189002       9.36287022       14.2701502    
 O   -2.70283008       10.9233503       14.2701502    
 O    5.40566015       0.00000000       14.2701502    
 O    4.50471020       1.56048000       14.2701502    
 O    3.60377002       3.12096000       14.2701502    
 O    2.70283008       4.68143988       14.2701502    
 O    1.80189002       6.24190998       14.2701502    
 O   0.900940001       7.80239010       14.2701502    
 O    0.00000000       9.36287022       14.2701502    
 O  -0.900940001       10.9233503       14.2701502    
 O    7.20754004       0.00000000       14.2701502    
 O    6.30660009       1.56048000       14.2701502    
 O    5.40566015       3.12096000       14.2701502    
 O    4.50471020       4.68143988       14.2701502    
 O    3.60377002       6.24190998       14.2701502    
 O    2.70283008       7.80239010       14.2701502    
 O    1.80189002       9.36287022       14.2701502    
 O   0.900940001       10.9233503       14.2701502    
 O    9.00942993       0.00000000       14.2701502    
 O    8.10848045       1.56048000       14.2701502    
 O    7.20754004       3.12096000       14.2701502    
 O    6.30660009       4.68143988       14.2701502    
 O    5.40566015       6.24190998       14.2701502    
 O    4.50471020       7.80239010       14.2701502    
 O    3.60377002       9.36287022       14.2701502    
 O    2.70283008       10.9233503       14.2701502    
 O    10.8113098       0.00000000       14.2701502    
 O    9.91036987       1.56048000       14.2701502    
 O    9.00942993       3.12096000       14.2701502    
 O    8.10848045       4.68143988       14.2701502    
 O    7.20754004       6.24190998       14.2701502    
 O    6.30660009       7.80239010       14.2701502    
 O    5.40566015       9.36287022       14.2701502    
 O    4.50471020       10.9233503       14.2701502    
 O    12.6132002       0.00000000       14.2701502    
 O    11.7122602       1.56048000       14.2701502    
 O    10.8113098       3.12096000       14.2701502    
 O    9.91036987       4.68143988       14.2701502    
 O    9.00942993       6.24190998       14.2701502    
 O    8.10848045       7.80239010       14.2701502    
 O    7.20754004       9.36287022       14.2701502    
 O    6.30660009       10.9233503       14.2701502    
         342
 Energy:  -2149.7424556000001     
 X   0.00000000       0.00000000       0.00000000    
 X   14.4150839       0.00000000       0.00000000    
 X  -7.20754194       12.4838276       0.00000000    
 X   0.00000000       0.00000000       32.5162544    
 X   7.20754194       12.4838276       0.00000000    
 X   14.4150839       0.00000000       32.5162544    
 X  -7.20754194       12.4838276       32.5162544    
 X   7.20754194       12.4838276       32.5162544    
 Al  -0.00000000       0.00000000       1.92534006    
 Al  -3.99999990E-05   2.77416992      0.375779986    
 Al  -0.00000000       2.77429008       4.12440014    
 Al   2.40254998       1.38712001       2.39601994    
 Al   2.40300989       1.38738000       6.31274986    
 Al  -0.00000000       0.00000000       4.61844015    
 Al  -0.00000000       0.00000000       8.49892998    
 Al   9.00000014E-05   2.77476001       6.80564022    
 Al  -2.33999989E-03   2.77609992       10.7251301    
 Al   2.40405989       1.38783002       8.99363041    
 Al   2.32592010       1.34406996       12.4857903    
 Al  -0.00000000       0.00000000       11.1917601    
 Al  -2.40251994       4.16123009       1.92556000    
 Al  -2.40249991       6.93543005      0.375779986    
 Al  -2.40249991       6.93548012       4.12479019    
 Al   2.99999992E-05   5.54831982       2.39613008    
 Al   2.99999992E-05   5.54871988       6.31330013    
 Al  -2.40264010       4.16143990       4.61890984    
 Al  -2.40295005       4.16209984       8.50051975    
 Al  -2.40226007       6.93554020       6.80645990    
 Al  -2.40248990       6.93474007       10.7209702    
 Al  -4.69999999E-04   5.54960012       8.99435997    
 Al  -3.94000020E-03   5.48155022       12.6481104    
 Al  -2.39981008       4.16422987       11.1862001    
 Al  -4.80505991       8.32256985       1.92554998    
 Al  -4.80501986       11.0967703      0.375779986    
 Al  -4.80494022       11.0966902       4.12440014    
 Al  -2.40257001       9.70963955       2.39613008    
 Al  -2.40222001       9.70944023       6.31330013    
 Al  -4.80494022       8.32238007       4.61892986    
 Al  -4.80474997       8.32149982       8.50049973    
 Al  -4.80458021       11.0963697       6.80564022    
 Al  -4.80219984       11.0978003       10.7251301    
 Al  -2.40121007       9.70942974       8.99435997    
 Al  -2.45840001       9.74647045       12.6481104    
 Al  -4.80846977       8.32009029       11.1860504    
 Al   4.80498981       2.99999992E-05   1.92556000    
 Al   4.80504990       2.77417994      0.375750005    
 Al   4.80515003       2.77420998       4.12462997    
 Al   7.20752001       1.38701999       2.39613008    
 Al   7.20748997       1.38706005       6.31330013    
 Al   4.80523014       2.99999992E-05   4.61890984    
 Al   4.80596018      -2.99999992E-05   8.50051975    
 Al   4.80524015       2.77426004       6.80625010    
 Al   4.80513000       2.77649999       10.7212496    
 Al   7.20768976       1.38704002       8.99464989    
 Al   7.20947981       1.37290001       12.6824398    
 Al   4.80624008      -3.80999991E-03   11.1862001    
 Al   2.40250993       4.16124010       1.92554998    
 Al   2.40252995       6.93549013      0.375779986    
 Al   2.40248990       6.93547010       4.12479019    
 Al   4.80497980       5.54841995       2.39613008    
 Al   4.80503988       5.54842997       6.31330013    
 Al   2.40262008       4.16143990       4.61892986    
 Al   2.40328002       4.16204023       8.50049973    
 Al   2.40231991       6.93564987       6.80645990    
 Al   2.40312004       6.93584013       10.7209702    
 Al   4.80492020       5.54826021       8.99464989    
 Al   4.79176998       5.55378008       12.6824398    
 Al   2.40636992       4.15953016       11.1860504    
 Al   0.00000000       8.32254982       1.92569005    
 Al  -2.99999992E-05   11.0967398      0.375779986    
 Al   0.00000000       11.0967102       4.12479019    
 Al   2.40253997       9.70969009       2.39613008    
 Al   2.40218997       9.70948982       6.31330013    
 Al   0.00000000       8.32254982       4.61908007    
 Al   0.00000000       8.32254982       8.50105953    
 Al  -7.00000019E-05   11.0964699       6.80645990    
 Al  -6.39999984E-04   11.0970697       10.7209702    
 Al   2.40167999       9.70862007       8.99435997    
 Al   2.46234989       9.73962975       12.6481104    
 Al   0.00000000       8.32254982       11.1834898    
 Al   9.61009026       1.99999995E-05   1.92554998    
 Al   9.61003971       2.77420998      0.375750005    
 Al   9.60997009       2.77428007       4.12462997    
 Al   12.0125303       1.38710999       2.39601994    
 Al   12.0120697       1.38736999       6.31274986    
 Al   9.60986042       9.99999975E-06   4.61892986    
 Al   9.60900974       2.80000007E-04   8.50049973    
 Al   9.60988045       2.77433991       6.80625010    
 Al   9.60799026       2.77311993       10.7212496    
 Al   12.0111599       1.38805997       8.99363041    
 Al   12.0881300       1.34227002       12.4857903    
 Al   9.60964012       4.20999993E-03   11.1860504    
 Al   7.20754004       4.16128016       1.92565000    
 Al   7.20753002       6.93544006      0.375750005    
 Al   7.20749998       6.93533993       4.12462997    
 Al   9.61013031       5.54837990       2.39613008    
 Al   9.61011028       5.54832983       6.31330013    
 Al   7.20754004       4.16128016       4.61899996    
 Al   7.20754004       4.16128016       8.50094986    
 Al   7.20748997       6.93523979       6.80625010    
 Al   7.20948982       6.93420982       10.7212496    
 Al   9.61003017       5.54852009       8.99464989    
 Al   9.62137985       5.55713987       12.6824398    
 Al   7.20754004       4.16128016       11.1840897    
 Al   4.80506992       8.32258034       1.92556000    
 Al   4.80504990       11.0967102      0.375779986    
 Al   4.80494022       11.0966902       4.12440014    
 Al   7.20755005       9.70960045       2.39601994    
 Al   7.20755005       9.70907021       6.31274986    
 Al   4.80495024       8.32236004       4.61890984    
 Al   4.80453014       8.32176018       8.50051975    
 Al   4.80448008       11.0965300       6.80564022    
 Al   4.80454016       11.0937500       10.7251301    
 Al   7.20740986       9.70794010       8.99363041    
 Al   7.20858002       9.79747963       12.4857903    
 Al   4.80111980       8.32341003       11.1862001    
 O    1.47175002       2.82999990E-03   3.28085995    
 O    3.14650011       7.61300027E-02   1.06616998    
 O  -0.738330007       1.27315998       3.28085995    
 O    1.66908002       2.88526011       3.28082991    
 O    3.16584992       2.68688011       1.06617999    
 O   0.895250022       1.39829004       1.06639004    
 O    3.87327003       1.38724005       7.65008020    
 O   0.735279977       1.49996996       5.46503019    
 O    1.66621006       2.66067004       7.65052986    
 O    1.66664004      0.112810001       7.65130997    
 O   0.735599995       4.04789019       5.46489000    
 O   -1.47086000       2.77417994       5.46505022    
 O    1.49708998       2.76975989       11.9913998    
 O   -1.66905999       2.88466001       9.83160973    
 O  -0.740220010       4.06508017       11.9868402    
 O  -0.754710019       1.48425996       11.9833403    
 O   0.737460017       1.27388000       9.83236980    
 O    3.33272004       3.12000001E-03   9.83160973    
 O  -0.930790007       4.16409016       3.28096008    
 O   0.743950009       4.23743010       1.06623006    
 O   -3.14085007       5.43441010       3.28083992    
 O  -0.733319998       7.04653978       3.28078008    
 O   0.763360023       6.84813023       1.06605005    
 O   -1.50737000       5.55963993       1.06615996    
 O    1.47103000       5.54843998       7.65002012    
 O   -1.66723001       5.66130018       5.46475983    
 O  -0.735970020       6.82200003       7.64976978    
 O  -0.735210001       4.27350998       7.65041018    
 O   -1.66690004       8.20925999       5.46472979    
 O   -3.87356997       6.93561983       5.46476984    
 O  -0.910759985       6.93274021       11.9947004    
 O   -4.07087994       7.04828978       9.83127022    
 O   -3.13828993       8.22780037       11.9958897    
 O   -3.15453005       5.64441013       11.9895601    
 O   -1.66487002       5.43493986       9.83076000    
 O   0.931060016       4.16280985       9.83211040    
 O   -3.33331990       8.32553005       3.28085995    
 O   -1.65856004       8.39867020       1.06605005    
 O   -5.54336977       9.59574032       3.28082991    
 O   -3.13594007       11.2078695       3.28096008    
 O   -1.63906002       11.0094299       1.06615996    
 O   -3.90980005       9.72082996       1.06623006    
 O  -0.931529999       9.71020031       7.64976978    
 O   -4.06977987       9.82283020       5.46489000    
 O   -3.13896990       10.9837904       7.65041018    
 O   -3.13795996       8.43566036       7.65002012    
 O   -4.06961012       12.3705397       5.46505022    
 O   -6.27617979       11.0970697       5.46503019    
 O   -3.31697989       11.0923405       11.9868402    
 O   -6.47306013       11.2082300       9.83236980    
 O   -5.54478979       12.3952999       11.9833403    
 O   -5.55740976       9.80243015       11.9913998    
 O   -4.06796980       9.59611034       9.83211040    
 O   -1.47186995       8.32437992       9.83145046    
 O    6.27676010       2.85000005E-03   3.28083992    
 O    7.95144987       7.61099979E-02   1.06614995    
 O    4.06662989       1.27307999       3.28093004    
 O    6.47412014       2.88530993       3.28082991    
 O    7.97089005       2.68682003       1.06620002    
 O    5.70031977       1.39821994       1.06617999    
 O    8.67883968       1.38735998       7.65012980    
 O    5.54036999       1.50005996       5.46473980    
 O    6.47159004       2.66072989       7.64997005    
 O    6.47236013      0.112980001       7.65000010    
 O    5.54059982       4.04804993       5.46472979    
 O    3.33380008       2.77431989       5.46490002    
 O    6.29442978       2.76964998       11.9949903    
 O    3.13678002       2.88435006       9.83125019    
 O    4.06085014       4.06632996       11.9878902    
 O    4.05669022       1.48485994       11.9963903    
 O    5.54114008       1.27398002       9.83181000    
 O    8.13943005       1.33999996E-03   9.83127022    
 O    3.87418008       4.16405010       3.28090000    
 O    5.54895020       4.23743010       1.06620002    
 O    1.66408002       5.43432999       3.28085995    
 O    4.07163000       7.04656982       3.28083992    
 O    5.56828022       6.84810019       1.06617999    
 O    3.29772997       5.55961990       1.06614995    
 O    6.27601004       5.54890013       7.64997005    
 O    3.13790011       5.66140985       5.46476984    
 O    4.06921005       6.82212019       7.65000010    
 O    4.06961012       4.27405024       7.65012980    
 O    3.13832998       8.20932007       5.46475983    
 O   0.931559980       6.93562984       5.46472979    
 O    3.89660001       6.92972994       11.9895601    
 O   0.734350026       7.04694986       9.83145046    