<?xml version="1.0" encoding="ISO-8859-1"?>
<modeling>
 <generator>
  <i name="program" type="string">vasp </i>
  <i name="version" type="string">6.2.1  </i>
  <i name="subversion" type="string">16May21 (build May 12 2022 08:28:04) complex                          parallel </i>
  <i name="platform" type="string">LinuxPGI </i>
  <i name="date" type="string">2022 07 12 </i>
  <i name="time" type="string">04:31:32 </i>
 </generator>
 <incar>
  <i type="string" name="SYSTEM">NiAl</i>
  <i type="int" name="ISTART">     0</i>
  <i type="int" name="NELMIN">     6</i>
  <i type="int" name="IBRION">     2</i>
  <i name="EDIFF">      0.00000500</i>
  <i type="int" name="NSW">    40</i>
  <i type="int" name="ISIF">     0</i>
  <i name="ENCUT">    360.00000000</i>
  <i name="POTIM">      0.20000000</i>
  <i type="string" name="LREAL">Auto</i>
  <i type="logical" name="LPLANE"> T  </i>
  <i type="int" name="ISMEAR">     0</i>
  <i name="SIGMA">      0.05000000</i>
  <i type="logical" name="LWAVE"> F  </i>
  <i type="logical" name="LCHARG"> F  </i>
  <i type="int" name="IVDW">    12</i>
 </incar>
 <primitive_cell>
  <structure name="primitive_cell" >
   <crystal>
    <varray name="basis" >
     <v>      14.41508400       0.00000000       0.00000000 </v>
     <v>      -7.20754200      12.48382800       0.00000000 </v>
     <v>       0.00000000       0.00000000      32.51625400 </v>
    </varray>
    <i name="volume">   5851.47644655 </i>
    <varray name="rec_basis" >
     <v>       0.06937178       0.04005182      -0.00000000 </v>
     <v>       0.00000000       0.08010363       0.00000000 </v>
     <v>       0.00000000      -0.00000000       0.03075385 </v>
    </varray>
   </crystal>
   <varray name="positions" >
    <v>       0.00000000       0.00000000       0.05966082 </v>
    <v>       0.11111100       0.22222233       0.00756853 </v>
    <v>       0.11111100       0.22222233       0.12689017 </v>
    <v>       0.22222233       0.11111100       0.07479748 </v>
    <v>       0.22222233       0.11111100       0.19411912 </v>
    <v>       0.00000000       0.00000000       0.14202683 </v>
    <v>       0.00000000       0.00000000       0.26134848 </v>
    <v>       0.11111100       0.22222233       0.20925619 </v>
    <v>       0.11111100       0.22222233       0.32857783 </v>
    <v>       0.22222233       0.11111100       0.27648513 </v>
    <v>       0.22222233       0.11111100       0.39580678 </v>
    <v>       0.00000000       0.00000000       0.34371449 </v>
    <v>       0.00000000       0.33333333       0.05966082 </v>
    <v>       0.11111100       0.55555567       0.00756853 </v>
    <v>       0.11111100       0.55555567       0.12689017 </v>
    <v>       0.22222233       0.44444433       0.07479748 </v>
    <v>       0.22222233       0.44444433       0.19411912 </v>
    <v>       0.00000000       0.33333333       0.14202683 </v>
    <v>       0.00000000       0.33333333       0.26134848 </v>
    <v>       0.11111100       0.55555567       0.20925619 </v>
    <v>       0.11111100       0.55555567       0.32857783 </v>
    <v>       0.22222233       0.44444433       0.27648513 </v>
    <v>       0.22222233       0.44444433       0.39580678 </v>
    <v>       0.00000000       0.33333333       0.34371449 </v>
    <v>       0.00000000       0.66666667       0.05966082 </v>
    <v>       0.11111100       0.88888900       0.00756853 </v>
    <v>       0.11111100       0.88888900       0.12689017 </v>
    <v>       0.22222233       0.77777767       0.07479748 </v>
    <v>       0.22222233       0.77777767       0.19411912 </v>
    <v>       0.00000000       0.66666667       0.14202683 </v>
    <v>       0.00000000       0.66666667       0.26134848 </v>
    <v>       0.11111100       0.88888900       0.20925619 </v>
    <v>       0.11111100       0.88888900       0.32857783 </v>
    <v>       0.22222233       0.77777767       0.27648513 </v>
    <v>       0.22222233       0.77777767       0.39580678 </v>
    <v>       0.00000000       0.66666667       0.34371449 </v>
    <v>       0.33333333       0.00000000       0.05966082 </v>
    <v>       0.44444433       0.22222233       0.00756853 </v>
    <v>       0.44444433       0.22222233       0.12689017 </v>
    <v>       0.55555567       0.11111100       0.07479748 </v>
    <v>       0.55555567       0.11111100       0.19411912 </v>
    <v>       0.33333333       0.00000000       0.14202683 </v>
    <v>       0.33333333       0.00000000       0.26134848 </v>
    <v>       0.44444433       0.22222233       0.20925619 </v>
    <v>       0.44444433       0.22222233       0.32857783 </v>
    <v>       0.55555567       0.11111100       0.27648513 </v>
    <v>       0.55555567       0.11111100       0.39580678 </v>
    <v>       0.33333333       0.00000000       0.34371449 </v>
    <v>       0.33333333       0.33333333       0.05966082 </v>
    <v>       0.44444433       0.55555567       0.00756853 </v>
    <v>       0.44444433       0.55555567       0.12689017 </v>
    <v>       0.55555567       0.44444433       0.07479748 </v>
    <v>       0.55555567       0.44444433       0.19411912 </v>
    <v>       0.33333333       0.33333333       0.14202683 </v>
    <v>       0.33333333       0.33333333       0.26134848 </v>
    <v>       0.44444433       0.55555567       0.20925619 </v>
    <v>       0.44444433       0.55555567       0.32857783 </v>
    <v>       0.55555567       0.44444433       0.27648513 </v>
    <v>       0.55555567       0.44444433       0.39580678 </v>
    <v>       0.33333333       0.33333333       0.34371449 </v>
    <v>       0.33333333       0.66666667       0.05966082 </v>
    <v>       0.44444433       0.88888900       0.00756853 </v>
    <v>       0.44444433       0.88888900       0.12689017 </v>
    <v>       0.55555567       0.77777767       0.07479748 </v>
    <v>       0.55555567       0.77777767       0.19411912 </v>
    <v>       0.33333333       0.66666667       0.14202683 </v>
    <v>       0.33333333       0.66666667       0.26134848 </v>
    <v>       0.44444433       0.88888900       0.20925619 </v>
    <v>       0.44444433       0.88888900       0.32857783 </v>
    <v>       0.55555567       0.77777767       0.27648513 </v>
    <v>       0.55555567       0.77777767       0.39580678 </v>
    <v>       0.33333333       0.66666667       0.34371449 </v>
    <v>       0.66666667       0.00000000       0.05966082 </v>
    <v>       0.77777767       0.22222233       0.00756853 </v>
    <v>       0.77777767       0.22222233       0.12689017 </v>
    <v>       0.88888900       0.11111100       0.07479748 </v>
    <v>       0.88888900       0.11111100       0.19411912 </v>
    <v>       0.66666667       0.00000000       0.14202683 </v>
    <v>       0.66666667       0.00000000       0.26134848 </v>
    <v>       0.77777767       0.22222233       0.20925619 </v>
    <v>       0.77777767       0.22222233       0.32857783 </v>
    <v>       0.88888900       0.11111100       0.27648513 </v>
    <v>       0.88888900       0.11111100       0.39580678 </v>
    <v>       0.66666667       0.00000000       0.34371449 </v>
    <v>       0.66666667       0.33333333       0.05966082 </v>
    <v>       0.77777767       0.55555567       0.00756853 </v>
    <v>       0.77777767       0.55555567       0.12689017 </v>
    <v>       0.88888900       0.44444433       0.07479748 </v>
    <v>       0.88888900       0.44444433       0.19411912 </v>
    <v>       0.66666667       0.33333333       0.14202683 </v>
    <v>       0.66666667       0.33333333       0.26134848 </v>
    <v>       0.77777767       0.55555567       0.20925619 </v>
    <v>       0.77777767       0.55555567       0.32857783 </v>
    <v>       0.88888900       0.44444433       0.27648513 </v>
    <v>       0.88888900       0.44444433       0.39580678 </v>
    <v>       0.66666667       0.33333333       0.34371449 </v>
    <v>       0.66666667       0.66666667       0.05966082 </v>
    <v>       0.77777767       0.88888900       0.00756853 </v>
    <v>       0.77777767       0.88888900       0.12689017 </v>
    <v>       0.88888900       0.77777767       0.07479748 </v>
    <v>       0.88888900       0.77777767       0.19411912 </v>
    <v>       0.66666667       0.66666667       0.14202683 </v>
    <v>       0.66666667       0.66666667       0.26134848 </v>
    <v>       0.77777767       0.88888900       0.20925619 </v>
    <v>       0.77777767       0.88888900       0.32857783 </v>
    <v>       0.88888900       0.77777767       0.27648513 </v>
    <v>       0.88888900       0.77777767       0.39580678 </v>
    <v>       0.66666667       0.66666667       0.34371449 </v>
    <v>       0.10204867       0.00000000       0.10084383 </v>
    <v>       0.22222233       0.00906233       0.03361447 </v>
    <v>       0.00000000       0.10204867       0.10084383 </v>
    <v>       0.23128467       0.23128467       0.10084383 </v>
    <v>       0.32427100       0.21315967       0.03361447 </v>
    <v>       0.12017367       0.11111100       0.03361447 </v>
    <v>       0.32427100       0.11111100       0.23530213 </v>
    <v>       0.11111100       0.12017367       0.16807318 </v>
    <v>       0.22222233       0.21315967       0.23530213 </v>
    <v>       0.12017367       0.00906233       0.23530213 </v>
    <v>       0.21315967       0.32427100       0.16807318 </v>
    <v>       0.00906233       0.22222233       0.16807318 </v>
    <v>       0.21315967       0.22222233       0.36976083 </v>
    <v>       0.00000000       0.23128467       0.30253148 </v>
    <v>       0.11111100       0.32427100       0.36976083 </v>
    <v>       0.00906233       0.12017367       0.36976083 </v>
    <v>       0.10204867       0.10204867       0.30253148 </v>
    <v>       0.23128467       0.00000000       0.30253148 </v>
    <v>       0.10204867       0.33333333       0.10084383 </v>
    <v>       0.22222233       0.34239567       0.03361447 </v>
    <v>       0.00000000       0.43538200       0.10084383 </v>
    <v>       0.23128467       0.56461800       0.10084383 </v>
    <v>       0.32427100       0.54649300       0.03361447 </v>
    <v>       0.12017367       0.44444433       0.03361447 </v>
    <v>       0.32427100       0.44444433       0.23530213 </v>
    <v>       0.11111100       0.45350700       0.16807318 </v>
    <v>       0.22222233       0.54649300       0.23530213 </v>
    <v>       0.12017367       0.34239567       0.23530213 </v>
    <v>       0.21315967       0.65760433       0.16807318 </v>
    <v>       0.00906233       0.55555567       0.16807318 </v>
    <v>       0.21315967       0.55555567       0.36976083 </v>
    <v>       0.00000000       0.56461800       0.30253148 </v>
    <v>       0.11111100       0.65760433       0.36976083 </v>
    <v>       0.00906233       0.45350700       0.36976083 </v>
    <v>       0.10204867       0.43538200       0.30253148 </v>
    <v>       0.23128467       0.33333333       0.30253148 </v>
    <v>       0.10204867       0.66666667       0.10084383 </v>
    <v>       0.22222233       0.67572900       0.03361447 </v>
    <v>       0.00000000       0.76871533       0.10084383 </v>
    <v>       0.23128467       0.89795133       0.10084383 </v>
    <v>       0.32427100       0.87982633       0.03361447 </v>
    <v>       0.12017367       0.77777767       0.03361447 </v>
    <v>       0.32427100       0.77777767       0.23530213 </v>
    <v>       0.11111100       0.78684033       0.16807318 </v>
    <v>       0.22222233       0.87982633       0.23530213 </v>
    <v>       0.12017367       0.67572900       0.23530213 </v>
    <v>       0.21315967       0.99093767       0.16807318 </v>
    <v>       0.00906233       0.88888900       0.16807318 </v>
    <v>       0.21315967       0.88888900       0.36976083 </v>
    <v>       0.00000000       0.89795133       0.30253148 </v>
    <v>       0.11111100       0.99093767       0.36976083 </v>
    <v>       0.00906233       0.78684033       0.36976083 </v>
    <v>       0.10204867       0.76871533       0.30253148 </v>
    <v>       0.23128467       0.66666667       0.30253148 </v>
    <v>       0.43538200       0.00000000       0.10084383 </v>
    <v>       0.55555567       0.00906233       0.03361447 </v>
    <v>       0.33333333       0.10204867       0.10084383 </v>
    <v>       0.56461800       0.23128467       0.10084383 </v>
    <v>       0.65760433       0.21315967       0.03361447 </v>
    <v>       0.45350700       0.11111100       0.03361447 </v>
    <v>       0.65760433       0.11111100       0.23530213 </v>
    <v>       0.44444433       0.12017367       0.16807318 </v>
    <v>       0.55555567       0.21315967       0.23530213 </v>
    <v>       0.45350700       0.00906233       0.23530213 </v>
    <v>       0.54649300       0.32427100       0.16807318 </v>
    <v>       0.34239567       0.22222233       0.16807318 </v>
    <v>       0.54649300       0.22222233       0.36976083 </v>
    <v>       0.33333333       0.23128467       0.30253148 </v>
    <v>       0.44444433       0.32427100       0.36976083 </v>
    <v>       0.34239567       0.12017367       0.36976083 </v>
    <v>       0.43538200       0.10204867       0.30253148 </v>
    <v>       0.56461800       0.00000000       0.30253148 </v>
    <v>       0.43538200       0.33333333       0.10084383 </v>
    <v>       0.55555567       0.34239567       0.03361447 </v>
    <v>       0.33333333       0.43538200       0.10084383 </v>
    <v>       0.56461800       0.56461800       0.10084383 </v>
    <v>       0.65760433       0.54649300       0.03361447 </v>
    <v>       0.45350700       0.44444433       0.03361447 </v>
    <v>       0.65760433       0.44444433       0.23530213 </v>
    <v>       0.44444433       0.45350700       0.16807318 </v>
    <v>       0.55555567       0.54649300       0.23530213 </v>
    <v>       0.45350700       0.34239567       0.23530213 </v>
    <v>       0.54649300       0.65760433       0.16807318 </v>
    <v>       0.34239567       0.55555567       0.16807318 </v>
    <v>       0.54649300       0.55555567       0.36976083 </v>
    <v>       0.33333333       0.56461800       0.30253148 </v>
    <v>       0.44444433       0.65760433       0.36976083 </v>
    <v>       0.34239567       0.45350700       0.36976083 </v>
    <v>       0.43538200       0.43538200       0.30253148 </v>
    <v>       0.56461800       0.33333333       0.30253148 </v>
    <v>       0.43538200       0.66666667       0.10084383 </v>
    <v>       0.55555567       0.67572900       0.03361447 </v>
    <v>       0.33333333       0.76871533       0.10084383 </v>
    <v>       0.56461800       0.89795133       0.10084383 </v>
    <v>       0.65760433       0.87982633       0.03361447 </v>
    <v>       0.45350700       0.77777767       0.03361447 </v>
    <v>       0.65760433       0.77777767       0.23530213 </v>
    <v>       0.44444433       0.78684033       0.16807318 </v>
    <v>       0.55555567       0.87982633       0.23530213 </v>
    <v>       0.45350700       0.67572900       0.23530213 </v>
    <v>       0.54649300       0.99093767       0.16807318 </v>
    <v>       0.34239567       0.88888900       0.16807318 </v>
    <v>       0.54649300       0.88888900       0.36976083 </v>
    <v>       0.33333333       0.89795133       0.30253148 </v>
    <v>       0.44444433       0.99093767       0.36976083 </v>
    <v>       0.34239567       0.78684033       0.36976083 </v>
    <v>       0.43538200       0.76871533       0.30253148 </v>
    <v>       0.56461800       0.66666667       0.30253148 </v>
    <v>       0.76871533       0.00000000       0.10084383 </v>
    <v>       0.88888900       0.00906233       0.03361447 </v>
    <v>       0.66666667       0.10204867       0.10084383 </v>
    <v>       0.89795133       0.23128467       0.10084383 </v>
    <v>       0.99093767       0.21315967       0.03361447 </v>
    <v>       0.78684033       0.11111100       0.03361447 </v>
    <v>       0.99093767       0.11111100       0.23530213 </v>
    <v>       0.77777767       0.12017367       0.16807318 </v>
    <v>       0.88888900       0.21315967       0.23530213 </v>
    <v>       0.78684033       0.00906233       0.23530213 </v>
    <v>       0.87982633       0.32427100       0.16807318 </v>
    <v>       0.67572900       0.22222233       0.16807318 </v>
    <v>       0.87982633       0.22222233       0.36976083 </v>
    <v>       0.66666667       0.23128467       0.30253148 </v>
    <v>       0.77777767       0.32427100       0.36976083 </v>
    <v>       0.67572900       0.12017367       0.36976083 </v>
    <v>       0.76871533       0.10204867       0.30253148 </v>
    <v>       0.89795133       0.00000000       0.30253148 </v>
    <v>       0.76871533       0.33333333       0.10084383 </v>
    <v>       0.88888900       0.34239567       0.03361447 </v>
    <v>       0.66666667       0.43538200       0.10084383 </v>
    <v>       0.89795133       0.56461800       0.10084383 </v>
    <v>       0.99093767       0.54649300       0.03361447 </v>
    <v>       0.78684033       0.44444433       0.03361447 </v>
    <v>       0.99093767       0.44444433       0.23530213 </v>
    <v>       0.77777767       0.45350700       0.16807318 </v>
    <v>       0.88888900       0.54649300       0.23530213 </v>
    <v>       0.78684033       0.34239567       0.23530213 </v>
    <v>       0.87982633       0.65760433       0.16807318 </v>
    <v>       0.67572900       0.55555567       0.16807318 </v>
    <v>       0.87982633       0.55555567       0.36976083 </v>
    <v>       0.66666667       0.56461800       0.30253148 </v>
    <v>       0.77777767       0.65760433       0.36976083 </v>
    <v>       0.67572900       0.45350700       0.36976083 </v>
    <v>       0.76871533       0.43538200       0.30253148 </v>
    <v>       0.89795133       0.33333333       0.30253148 </v>
    <v>       0.76871533       0.66666667       0.10084383 </v>
    <v>       0.88888900       0.67572900       0.03361447 </v>
    <v>       0.66666667       0.76871533       0.10084383 </v>
    <v>       0.89795133       0.89795133       0.10084383 </v>
    <v>       0.99093767       0.87982633       0.03361447 </v>
    <v>       0.78684033       0.77777767       0.03361447 </v>
    <v>       0.99093767       0.77777767       0.23530213 </v>
    <v>       0.77777767       0.78684033       0.16807318 </v>
    <v>       0.88888900       0.87982633       0.23530213 </v>
    <v>       0.78684033       0.67572900       0.23530213 </v>
    <v>       0.87982633       0.99093767       0.16807318 </v>
    <v>       0.67572900       0.88888900       0.16807318 </v>
    <v>       0.87982633       0.88888900       0.36976083 </v>
    <v>       0.66666667       0.89795133       0.30253148 </v>
    <v>       0.77777767       0.99093767       0.36976083 </v>
    <v>       0.67572900       0.78684033       0.36976083 </v>
    <v>       0.76871533       0.76871533       0.30253148 </v>
    <v>       0.89795133       0.66666667       0.30253148 </v>
    <v>       0.00000000       0.00000000       0.43886217 </v>
    <v>       0.00000000       0.12500000       0.43886217 </v>
    <v>       0.00000000       0.25000000       0.43886217 </v>
    <v>       0.00000000       0.37500000       0.43886217 </v>
    <v>       0.00000000       0.50000000       0.43886217 </v>
    <v>       0.00000000       0.62500000       0.43886217 </v>
    <v>       0.00000000       0.75000000       0.43886217 </v>
    <v>       0.00000000       0.87500000       0.43886217 </v>
    <v>       0.12500000       0.00000000       0.43886217 </v>
    <v>       0.12500000       0.12500000       0.43886217 </v>
    <v>       0.12500000       0.25000000       0.43886217 </v>
    <v>       0.12500000       0.37500000       0.43886217 </v>
    <v>       0.12500000       0.50000000       0.43886217 </v>
    <v>       0.12500000       0.62500000       0.43886217 </v>
    <v>       0.12500000       0.75000000       0.43886217 </v>
    <v>       0.12500000       0.87500000       0.43886217 </v>
    <v>       0.25000000       0.00000000       0.43886217 </v>
    <v>       0.25000000       0.12500000       0.43886217 </v>
    <v>       0.25000000       0.25000000       0.43886217 </v>
    <v>       0.25000000       0.37500000       0.43886217 </v>
    <v>       0.25000000       0.50000000       0.43886217 </v>
    <v>       0.25000000       0.62500000       0.43886217 </v>
    <v>       0.25000000       0.75000000       0.43886217 </v>
    <v>       0.25000000       0.87500000       0.43886217 </v>
    <v>       0.37500000       0.00000000       0.43886217 </v>
    <v>       0.37500000       0.12500000       0.43886217 </v>
    <v>       0.37500000       0.25000000       0.43886217 </v>
    <v>       0.37500000       0.37500000       0.43886217 </v>
    <v>       0.37500000       0.50000000       0.43886217 </v>
    <v>       0.37500000       0.62500000       0.43886217 </v>
    <v>       0.37500000       0.75000000       0.43886217 </v>
    <v>       0.37500000       0.87500000       0.43886217 </v>
    <v>       0.50000000       0.00000000       0.43886217 </v>
    <v>       0.50000000       0.12500000       0.43886217 </v>
    <v>       0.50000000       0.25000000       0.43886217 </v>
    <v>       0.50000000       0.37500000       0.43886217 </v>
    <v>       0.50000000       0.50000000       0.43886217 </v>
    <v>       0.50000000       0.62500000       0.43886217 </v>
    <v>       0.50000000       0.75000000       0.43886217 </v>
    <v>       0.50000000       0.87500000       0.43886217 </v>
    <v>       0.62500000       0.00000000       0.43886217 </v>
    <v>       0.62500000       0.12500000       0.43886217 </v>
    <v>       0.62500000       0.25000000       0.43886217 </v>
    <v>       0.62500000       0.37500000       0.43886217 </v>
    <v>       0.62500000       0.50000000       0.43886217 </v>
    <v>       0.62500000       0.62500000       0.43886217 </v>
    <v>       0.62500000       0.75000000       0.43886217 </v>
    <v>       0.62500000       0.87500000       0.43886217 </v>
    <v>       0.75000000       0.00000000       0.43886217 </v>
    <v>       0.75000000       0.12500000       0.43886217 </v>
    <v>       0.75000000       0.25000000       0.43886217 </v>
    <v>       0.75000000       0.37500000       0.43886217 </v>
    <v>       0.75000000       0.50000000       0.43886217 </v>
    <v>       0.75000000       0.62500000       0.43886217 </v>
    <v>       0.75000000       0.75000000       0.43886217 </v>
    <v>       0.75000000       0.87500000       0.43886217 </v>
    <v>       0.87500000       0.00000000       0.43886217 </v>
    <v>       0.87500000       0.12500000       0.43886217 </v>
    <v>       0.87500000       0.25000000       0.43886217 </v>
    <v>       0.87500000       0.37500000       0.43886217 </v>
    <v>       0.87500000       0.50000000       0.43886217 </v>
    <v>       0.87500000       0.62500000       0.43886217 </v>
    <v>       0.87500000       0.75000000       0.43886217 </v>
    <v>       0.87500000       0.87500000       0.43886217 </v>
   </varray>
  </structure>
  <varray name="primitive_index" >
   <v type="int" >        1 </v>
   <v type="int" >        2 </v>
   <v type="int" >        3 </v>
   <v type="int" >        4 </v>
   <v type="int" >        5 </v>
   <v type="int" >        6 </v>
   <v type="int" >        7 </v>
   <v type="int" >        8 </v>
   <v type="int" >        9 </v>
   <v type="int" >       10 </v>
   <v type="int" >       11 </v>
   <v type="int" >       12 </v>
   <v type="int" >       13 </v>
   <v type="int" >       14 </v>
   <v type="int" >       15 </v>
   <v type="int" >       16 </v>
   <v type="int" >       17 </v>
   <v type="int" >       18 </v>
   <v type="int" >       19 </v>
   <v type="int" >       20 </v>
   <v type="int" >       21 </v>
   <v type="int" >       22 </v>
   <v type="int" >       23 </v>
   <v type="int" >       24 </v>
   <v type="int" >       25 </v>
   <v type="int" >       26 </v>
   <v type="int" >       27 </v>
   <v type="int" >       28 </v>
   <v type="int" >       29 </v>
   <v type="int" >       30 </v>
   <v type="int" >       31 </v>
   <v type="int" >       32 </v>
   <v type="int" >       33 </v>
   <v type="int" >       34 </v>
   <v type="int" >       35 </v>
   <v type="int" >       36 </v>
   <v type="int" >       37 </v>
   <v type="int" >       38 </v>
   <v type="int" >       39 </v>
   <v type="int" >       40 </v>
   <v type="int" >       41 </v>
   <v type="int" >       42 </v>
   <v type="int" >       43 </v>
   <v type="int" >       44 </v>
   <v type="int" >       45 </v>
   <v type="int" >       46 </v>
   <v type="int" >       47 </v>
   <v type="int" >       48 </v>
   <v type="int" >       49 </v>
   <v type="int" >       50 </v>
   <v type="int" >       51 </v>
   <v type="int" >       52 </v>
   <v type="int" >       53 </v>
   <v type="int" >       54 </v>
   <v type="int" >       55 </v>
   <v type="int" >       56 </v>
   <v type="int" >       57 </v>
   <v type="int" >       58 </v>
   <v type="int" >       59 </v>
   <v type="int" >       60 </v>
   <v type="int" >       61 </v>
   <v type="int" >       62 </v>
   <v type="int" >       63 </v>
   <v type="int" >       64 </v>
   <v type="int" >       65 </v>
   <v type="int" >       66 </v>
   <v type="int" >       67 </v>
   <v type="int" >       68 </v>
   <v type="int" >       69 </v>
   <v type="int" >       70 </v>
   <v type="int" >       71 </v>
   <v type="int" >       72 </v>
   <v type="int" >       73 </v>
   <v type="int" >       74 </v>
   <v type="int" >       75 </v>
   <v type="int" >       76 </v>
   <v type="int" >       77 </v>
   <v type="int" >       78 </v>
   <v type="int" >       79 </v>
   <v type="int" >       80 </v>
   <v type="int" >       81 </v>
   <v type="int" >       82 </v>
   <v type="int" >       83 </v>
   <v type="int" >       84 </v>
   <v type="int" >       85 </v>
   <v type="int" >       86 </v>
   <v type="int" >       87 </v>
   <v type="int" >       88 </v>
   <v type="int" >       89 </v>
   <v type="int" >       90 </v>
   <v type="int" >       91 </v>
   <v type="int" >       92 </v>
   <v type="int" >       93 </v>
   <v type="int" >       94 </v>
   <v type="int" >       95 </v>
   <v type="int" >       96 </v>
   <v type="int" >       97 </v>
   <v type="int" >       98 </v>
   <v type="int" >       99 </v>
   <v type="int" >      100 </v>
   <v type="int" >      101 </v>
   <v type="int" >      102 </v>
   <v type="int" >      103 </v>
   <v type="int" >      104 </v>
   <v type="int" >      105 </v>
   <v type="int" >      106 </v>
   <v type="int" >      107 </v>
   <v type="int" >      108 </v>
   <v type="int" >      109 </v>
   <v type="int" >      110 </v>
   <v type="int" >      111 </v>
   <v type="int" >      112 </v>
   <v type="int" >      113 </v>
   <v type="int" >      114 </v>
   <v type="int" >      115 </v>
   <v type="int" >      116 </v>
   <v type="int" >      117 </v>
   <v type="int" >      118 </v>
   <v type="int" >      119 </v>
   <v type="int" >      120 </v>
   <v type="int" >      121 </v>
   <v type="int" >      122 </v>
   <v type="int" >      123 </v>
   <v type="int" >      124 </v>
   <v type="int" >      125 </v>
   <v type="int" >      126 </v>
   <v type="int" >      127 </v>
   <v type="int" >      128 </v>
   <v type="int" >      129 </v>
   <v type="int" >      130 </v>
   <v type="int" >      131 </v>
   <v type="int" >      132 </v>
   <v type="int" >      133 </v>
   <v type="int" >      134 </v>
   <v type="int" >      135 </v>
   <v type="int" >      136 </v>
   <v type="int" >      137 </v>
   <v type="int" >      138 </v>
   <v type="int" >      139 </v>
   <v type="int" >      140 </v>
   <v type="int" >      141 </v>
   <v type="int" >      142 </v>
   <v type="int" >      143 </v>
   <v type="int" >      144 </v>
   <v type="int" >      145 </v>
   <v type="int" >      146 </v>
   <v type="int" >      147 </v>
   <v type="int" >      148 </v>
   <v type="int" >      149 </v>
   <v type="int" >      150 </v>
   <v type="int" >      151 </v>
   <v type="int" >      152 </v>
   <v type="int" >      153 </v>
   <v type="int" >      154 </v>
   <v type="int" >      155 </v>
   <v type="int" >      156 </v>
   <v type="int" >      157 </v>
   <v type="int" >      158 </v>
   <v type="int" >      159 </v>
   <v type="int" >      160 </v>
   <v type="int" >      161 </v>
   <v type="int" >      162 </v>
   <v type="int" >      163 </v>
   <v type="int" >      164 </v>
   <v type="int" >      165 </v>
   <v type="int" >      166 </v>
   <v type="int" >      167 </v>
   <v type="int" >      168 </v>
   <v type="int" >      169 </v>
   <v type="int" >      170 </v>
   <v type="int" >      171 </v>
   <v type="int" >      172 </v>
   <v type="int" >      173 </v>
   <v type="int" >      174 </v>
   <v type="int" >      175 </v>
   <v type="int" >      176 </v>
   <v type="int" >      177 </v>
   <v type="int" >      178 </v>
   <v type="int" >      179 </v>
   <v type="int" >      180 </v>
   <v type="int" >      181 </v>
   <v type="int" >      182 </v>
   <v type="int" >      183 </v>
   <v type="int" >      184 </v>
   <v type="int" >      185 </v>
   <v type="int" >      186 </v>
   <v type="int" >      187 </v>
   <v type="int" >      188 </v>
   <v type="int" >      189 </v>
   <v type="int" >      190 </v>
   <v type="int" >      191 </v>
   <v type="int" >      192 </v>
   <v type="int" >      193 </v>
   <v type="int" >      194 </v>
   <v type="int" >      195 </v>
   <v type="int" >      196 </v>
   <v type="int" >      197 </v>
   <v type="int" >      198 </v>
   <v type="int" >      199 </v>
   <v type="int" >      200 </v>
   <v type="int" >      201 </v>
   <v type="int" >      202 </v>
   <v type="int" >      203 </v>
   <v type="int" >      204 </v>
   <v type="int" >      205 </v>
   <v type="int" >      206 </v>
   <v type="int" >      207 </v>
   <v type="int" >      208 </v>
   <v type="int" >      209 </v>
   <v type="int" >      210 </v>
   <v type="int" >      211 </v>
   <v type="int" >      212 </v>
   <v type="int" >      213 </v>
   <v type="int" >      214 </v>
   <v type="int" >      215 </v>
   <v type="int" >      216 </v>
   <v type="int" >      217 </v>
   <v type="int" >      218 </v>
   <v type="int" >      219 </v>
   <v type="int" >      220 </v>
   <v type="int" >      221 </v>
   <v type="int" >      222 </v>
   <v type="int" >      223 </v>
   <v type="int" >      224 </v>
   <v type="int" >      225 </v>
   <v type="int" >      226 </v>
   <v type="int" >      227 </v>
   <v type="int" >      228 </v>
   <v type="int" >      229 </v>
   <v type="int" >      230 </v>
   <v type="int" >      231 </v>
   <v type="int" >      232 </v>
   <v type="int" >      233 </v>
   <v type="int" >      234 </v>
   <v type="int" >      235 </v>
   <v type="int" >      236 </v>
   <v type="int" >      237 </v>
   <v type="int" >      238 </v>
   <v type="int" >      239 </v>
   <v type="int" >      240 </v>
   <v type="int" >      241 </v>
   <v type="int" >      242 </v>
   <v type="int" >      243 </v>
   <v type="int" >      244 </v>
   <v type="int" >      245 </v>
   <v type="int" >      246 </v>
   <v type="int" >      247 </v>
   <v type="int" >      248 </v>
   <v type="int" >      249 </v>
   <v type="int" >      250 </v>
   <v type="int" >      251 </v>
   <v type="int" >      252 </v>
   <v type="int" >      253 </v>
   <v type="int" >      254 </v>
   <v type="int" >      255 </v>
   <v type="int" >      256 </v>
   <v type="int" >      257 </v>
   <v type="int" >      258 </v>
   <v type="int" >      259 </v>
   <v type="int" >      260 </v>
   <v type="int" >      261 </v>
   <v type="int" >      262 </v>
   <v type="int" >      263 </v>
   <v type="int" >      264 </v>
   <v type="int" >      265 </v>
   <v type="int" >      266 </v>
   <v type="int" >      267 </v>
   <v type="int" >      268 </v>
   <v type="int" >      269 </v>
   <v type="int" >      270 </v>
   <v type="int" >      271 </v>
   <v type="int" >      272 </v>
   <v type="int" >      273 </v>
   <v type="int" >      274 </v>
   <v type="int" >      275 </v>
   <v type="int" >      276 </v>
   <v type="int" >      277 </v>
   <v type="int" >      278 </v>
   <v type="int" >      279 </v>
   <v type="int" >      280 </v>
   <v type="int" >      281 </v>
   <v type="int" >      282 </v>
   <v type="int" >      283 </v>
   <v type="int" >      284 </v>
   <v type="int" >      285 </v>
   <v type="int" >      286 </v>
   <v type="int" >      287 </v>
   <v type="int" >      288 </v>
   <v type="int" >      289 </v>
   <v type="int" >      290 </v>
   <v type="int" >      291 </v>
   <v type="int" >      292 </v>
   <v type="int" >      293 </v>
   <v type="int" >      294 </v>
   <v type="int" >      295 </v>
   <v type="int" >      296 </v>
   <v type="int" >      297 </v>
   <v type="int" >      298 </v>
   <v type="int" >      299 </v>
   <v type="int" >      300 </v>
   <v type="int" >      301 </v>
   <v type="int" >      302 </v>
   <v type="int" >      303 </v>
   <v type="int" >      304 </v>
   <v type="int" >      305 </v>
   <v type="int" >      306 </v>
   <v type="int" >      307 </v>
   <v type="int" >      308 </v>
   <v type="int" >      309 </v>
   <v type="int" >      310 </v>
   <v type="int" >      311 </v>
   <v type="int" >      312 </v>
   <v type="int" >      313 </v>
   <v type="int" >      314 </v>
   <v type="int" >      315 </v>
   <v type="int" >      316 </v>
   <v type="int" >      317 </v>
   <v type="int" >      318 </v>
   <v type="int" >      319 </v>
   <v type="int" >      320 </v>
   <v type="int" >      321 </v>
   <v type="int" >      322 </v>
   <v type="int" >      323 </v>
   <v type="int" >      324 </v>
   <v type="int" >      325 </v>
   <v type="int" >      326 </v>
   <v type="int" >      327 </v>
   <v type="int" >      328 </v>
   <v type="int" >      329 </v>
   <v type="int" >      330 </v>
   <v type="int" >      331 </v>
   <v type="int" >      332 </v>
   <v type="int" >      333 </v>
   <v type="int" >      334 </v>
  </varray>
 </primitive_cell>
 <kpoints>
  <generation param="Gamma">
   <v type="int" name="divisions">       2        2        1 </v>
   <v name="usershift">      0.00000000       0.00000000       0.00000000 </v>
   <v name="genvec1">      0.50000000       0.00000000       0.00000000 </v>
   <v name="genvec2">      0.00000000       0.50000000       0.00000000 </v>
   <v name="genvec3">      0.00000000       0.00000000       1.00000000 </v>
   <v name="shift">      0.00000000       0.00000000       0.00000000 </v>
  </generation>
  <varray name="kpointlist" >
   <v>       0.00000000       0.00000000       0.00000000 </v>
   <v>       0.50000000       0.00000000       0.00000000 </v>
  </varray>
  <varray name="weights" >
   <v>       0.25000000 </v>
   <v>       0.75000000 </v>
  </varray>
 </kpoints>
 <parameters>
  <separator name="general" >
   <i type="string" name="SYSTEM">NiAl</i>
   <i type="logical" name="LCOMPAT"> F  </i>
  </separator>
  <separator name="electronic" >
   <i type="string" name="PREC">normal</i>
   <i name="ENMAX">    360.00000000</i>
   <i name="ENAUG">   1139.60900000</i>
   <i name="EDIFF">      0.00000500</i>
   <i type="int" name="IALGO">    38</i>
   <i type="int" name="IWAVPR">    11</i>
   <i type="int" name="NBANDS">  1008</i>
   <i type="int" name="NBANDSLOW">    -1</i>
   <i type="int" name="NBANDSHIGH">    -1</i>
   <i name="NELECT">   1680.00000000</i>
   <i type="int" name="TURBO">     0</i>
   <i type="int" name="IRESTART">     0</i>
   <i type="int" name="NREBOOT">     0</i>
   <i type="int" name="NMIN">     0</i>
   <i name="EREF">      0.00000000</i>
   <separator name="electronic smearing" >
    <i type="int" name="ISMEAR">     0</i>
    <i name="SIGMA">      0.05000000</i>
    <i name="KSPACING">      0.50000000</i>
    <i type="logical" name="KGAMMA"> T  </i>
    <i type="logical" name="KBLOWUP"> T  </i>
   </separator>
   <separator name="electronic projectors" >
    <i type="logical" name="LREAL"> T  </i>
    <v name="ROPT">     -0.00050000     -0.00050000</v>
    <i type="int" name="LMAXPAW">  -100</i>
    <i type="int" name="LMAXMIX">     2</i>
    <i type="logical" name="NLSPLINE"> F  </i>
   </separator>
   <separator name="electronic startup" >
    <i type="int" name="ISTART">     0</i>
    <i type="int" name="ICHARG">     2</i>
    <i type="int" name="INIWAV">     1</i>
   </separator>
   <separator name="electronic spin" >
    <i type="int" name="ISPIN">     1</i>
    <i type="logical" name="LNONCOLLINEAR"> F  </i>
    <v name="MAGMOM">      1.00000000      1.00000000      1.00000000      1.00000000      1.00000000      1.00000000      1.00000000      1.00000000      1.00000000      1.00000000      1.00000000      1.00000000      1.00000000      1.00000000      1.00000000      1.00000000      1.00000000      1.00000000      1.00000000      1.00000000
      1.00000000      1.00000000      1.00000000      1.00000000      1.00000000      1.00000000      1.00000000      1.00000000      1.00000000      1.00000000      1.00000000      1.00000000      1.00000000      1.00000000      1.00000000      1.00000000      1.00000000      1.00000000      1.00000000      1.00000000
      1.00000000      1.00000000      1.00000000      1.00000000      1.00000000      1.00000000      1.00000000      1.00000000      1.00000000      1.00000000      1.00000000      1.00000000      1.00000000      1.00000000      1.00000000      1.00000000      1.00000000      1.00000000      1.00000000      1.00000000
      1.00000000      1.00000000      1.00000000      1.00000000      1.00000000      1.00000000      1.00000000      1.00000000      1.00000000      1.00000000      1.00000000      1.00000000      1.00000000      1.00000000      1.00000000      1.00000000      1.00000000      1.00000000      1.00000000      1.00000000
      1.00000000      1.00000000      1.00000000      1.00000000      1.00000000      1.00000000      1.00000000      1.00000000      1.00000000      1.00000000      1.00000000      1.00000000      1.00000000      1.00000000      1.00000000      1.00000000      1.00000000      1.00000000      1.00000000      1.00000000
      1.00000000      1.00000000      1.00000000      1.00000000      1.00000000      1.00000000      1.00000000      1.00000000      1.00000000      1.00000000      1.00000000      1.00000000      1.00000000      1.00000000      1.00000000      1.00000000      1.00000000      1.00000000      1.00000000      1.00000000
      1.00000000      1.00000000      1.00000000      1.00000000      1.00000000      1.00000000      1.00000000      1.00000000      1.00000000      1.00000000      1.00000000      1.00000000      1.00000000      1.00000000      1.00000000      1.00000000      1.00000000      1.00000000      1.00000000      1.00000000
      1.00000000      1.00000000      1.00000000      1.00000000      1.00000000      1.00000000      1.00000000      1.00000000      1.00000000      1.00000000      1.00000000      1.00000000      1.00000000      1.00000000      1.00000000      1.00000000      1.00000000      1.00000000      1.00000000      1.00000000
      1.00000000      1.00000000      1.00000000      1.00000000      1.00000000      1.00000000      1.00000000      1.00000000      1.00000000      1.00000000      1.00000000      1.00000000      1.00000000      1.00000000      1.00000000      1.00000000      1.00000000      1.00000000      1.00000000      1.00000000
      1.00000000      1.00000000      1.00000000      1.00000000      1.00000000      1.00000000      1.00000000      1.00000000      1.00000000      1.00000000      1.00000000      1.00000000      1.00000000      1.00000000      1.00000000      1.00000000      1.00000000      1.00000000      1.00000000      1.00000000
      1.00000000      1.00000000      1.00000000      1.00000000      1.00000000      1.00000000      1.00000000      1.00000000      1.00000000      1.00000000      1.00000000      1.00000000      1.00000000      1.00000000      1.00000000      1.00000000      1.00000000      1.00000000      1.00000000      1.00000000
      1.00000000      1.00000000      1.00000000      1.00000000      1.00000000      1.00000000      1.00000000      1.00000000      1.00000000      1.00000000      1.00000000      1.00000000      1.00000000      1.00000000      1.00000000      1.00000000      1.00000000      1.00000000      1.00000000      1.00000000
      1.00000000      1.00000000      1.00000000      1.00000000      1.00000000      1.00000000      1.00000000      1.00000000      1.00000000      1.00000000      1.00000000      1.00000000      1.00000000      1.00000000      1.00000000      1.00000000      1.00000000      1.00000000      1.00000000      1.00000000
      1.00000000      1.00000000      1.00000000      1.00000000      1.00000000      1.00000000      1.00000000      1.00000000      1.00000000      1.00000000      1.00000000      1.00000000      1.00000000      1.00000000      1.00000000      1.00000000      1.00000000      1.00000000      1.00000000      1.00000000
      1.00000000      1.00000000      1.00000000      1.00000000      1.00000000      1.00000000      1.00000000      1.00000000      1.00000000      1.00000000      1.00000000      1.00000000      1.00000000      1.00000000      1.00000000      1.00000000      1.00000000      1.00000000      1.00000000      1.00000000
      1.00000000      1.00000000      1.00000000      1.00000000      1.00000000      1.00000000      1.00000000      1.00000000      1.00000000      1.00000000      1.00000000      1.00000000      1.00000000      1.00000000      1.00000000      1.00000000      1.00000000      1.00000000      1.00000000      1.00000000
      1.00000000      1.00000000      1.00000000      1.00000000      1.00000000      1.00000000      1.00000000      1.00000000      1.00000000      1.00000000      1.00000000      1.00000000      1.00000000      1.00000000</v>
    <i name="NUPDOWN">     -1.00000000</i>
    <i type="logical" name="LSORBIT"> F  </i>
    <v name="SAXIS">      0.00000000      0.00000000      1.00000000</v>
    <i type="logical" name="LSPIRAL"> F  </i>
    <v name="QSPIRAL">      0.00000000      0.00000000      0.00000000</v>
    <i type="logical" name="LZEROZ"> F  </i>
   </separator>
   <separator name="electronic exchange-correlation" >
    <i type="logical" name="LASPH"> F  </i>
    <i type="logical" name="LMETAGGA"> F  </i>
   </separator>
   <separator name="electronic convergence" >
    <i type="int" name="NELM">    60</i>
    <i type="int" name="NELMDL">    -5</i>
    <i type="int" name="NELMIN">     6</i>
    <i name="ENINI">    360.00000000</i>
    <separator name="electronic convergence detail" >
     <i type="logical" name="LDIAG"> T  </i>
     <i type="logical" name="LSUBROT"> F  </i>
     <i name="WEIMIN">      0.00100000</i>
     <i name="EBREAK">      0.00000000</i>
     <i name="DEPER">      0.30000000</i>
     <i type="int" name="NRMM">     4</i>
     <i name="TIME">      0.40000000</i>
    </separator>
   </separator>
   <separator name="electronic mixer" >
    <i name="AMIX">      0.40000000</i>
    <i name="BMIX">      1.00000000</i>
    <i name="AMIN">      0.10000000</i>
    <i name="AMIX_MAG">      1.60000000</i>
    <i name="BMIX_MAG">      1.00000000</i>
    <separator name="electronic mixer details" >
     <i type="int" name="IMIX">     4</i>
     <i type="logical" name="MIXFIRST"> F  </i>
     <i type="int" name="MAXMIX">   -45</i>
     <i name="WC">    100.00000000</i>
     <i type="int" name="INIMIX">     1</i>
     <i type="int" name="MIXPRE">     1</i>
     <i type="int" name="MREMOVE">     5</i>
    </separator>
   </separator>
   <separator name="electronic dipolcorrection" >
    <i type="logical" name="LDIPOL"> F  </i>
    <i type="logical" name="LMONO"> F  </i>
    <i type="int" name="IDIPOL">     0</i>
    <i name="EPSILON">      1.00000000</i>
    <v name="DIPOL">   -100.00000000   -100.00000000   -100.00000000</v>
    <i name="EFIELD">      0.00000000</i>
   </separator>
  </separator>
  <separator name="grids" >
   <i type="int" name="NGX">    70</i>
   <i type="int" name="NGY">    70</i>
   <i type="int" name="NGZ">   160</i>
   <i type="int" name="NGXF">   140</i>
   <i type="int" name="NGYF">   140</i>
   <i type="int" name="NGZF">   320</i>
   <i type="logical" name="ADDGRID"> F  </i>
  </separator>
  <separator name="ionic" >
   <i type="int" name="NSW">    40</i>
   <i type="int" name="IBRION">     2</i>
   <i type="int" name="MDALGO">     0</i>
   <i type="int" name="ISIF">     0</i>
   <i name="PSTRESS">      0.00000000</i>
   <i name="EDIFFG">      0.00005000</i>
   <i type="int" name="NFREE">     1</i>
   <i name="POTIM">      0.20000000</i>
   <i name="SMASS">     -3.00000000</i>
   <i name="SCALEE">      1.00000000</i>
  </separator>
  <separator name="ionic md" >
   <i name="TEBEG">      0.00010000</i>
   <i name="TEEND">      0.00010000</i>
   <i type="int" name="NBLOCK">     1</i>
   <i type="int" name="KBLOCK">    40</i>
   <i type="int" name="NPACO">   256</i>
   <i name="APACO">     16.00000000</i>
  </separator>
  <separator name="symmetry" >
   <i type="int" name="ISYM">     2</i>
   <i name="SYMPREC">      0.00001000</i>
  </separator>
  <separator name="dos" >
   <i type="int" name="LORBIT">     0</i>
   <v name="RWIGS">     -1.00000000     -1.00000000</v>
   <i type="int" name="NEDOS">   301</i>
   <i name="EMIN">     10.00000000</i>
   <i name="EMAX">    -10.00000000</i>
   <i name="EFERMI">      0.00000000</i>
  </separator>
  <separator name="writing" >
   <i type="int" name="NWRITE">     2</i>
   <i type="logical" name="LWAVE"> F  </i>
   <i type="logical" name="LDOWNSAMPLE"> F  </i>
   <i type="logical" name="LCHARG"> F  </i>
   <i type="logical" name="LPARD"> F  </i>
   <i type="logical" name="LVTOT"> F  </i>
   <i type="logical" name="LVHAR"> F  </i>
   <i type="logical" name="LELF"> F  </i>
   <i type="logical" name="LOPTICS"> F  </i>
   <v name="STM">      0.00000000      0.00000000      0.00000000      0.00000000      0.00000000      0.00000000      0.00000000</v>
  </separator>
  <separator name="performance" >
   <i type="int" name="NPAR">     1</i>
   <i type="int" name="NSIM">     4</i>
   <i type="int" name="NBLK">    -1</i>
   <i type="logical" name="LPLANE"> T  </i>
   <i type="logical" name="LSCALAPACK"> T  </i>
   <i type="logical" name="LSCAAWARE"> F  </i>
   <i type="logical" name="LSCALU"> F  </i>
   <i type="logical" name="LASYNC"> F  </i>
   <i type="logical" name="LORBITALREAL"> F  </i>
  </separator>
  <separator name="miscellaneous" >
   <i type="int" name="IDIOT">     3</i>
   <i type="int" name="PHON_NSTRUCT">    -1</i>
   <i type="logical" name="LMUSIC"> F  </i>
   <v name="POMASS">     26.98200000     16.00000000</v>
   <v name="DARWINR">      0.00000000      0.00000000</v>
   <v name="DARWINV">      1.00000000      1.00000000</v>
   <i type="logical" name="LCORR"> T  </i>
  </separator>
  <i type="logical" name="GGA_COMPAT"> T  </i>
  <i type="logical" name="LBERRY"> F  </i>
  <i type="int" name="ICORELEVEL">     0</i>
  <i type="logical" name="LDAU"> F  </i>
  <i type="int" name="I_CONSTRAINED_M">     0</i>
  <separator name="electronic exchange-correlation" >
   <i type="string" name="GGA">--</i>
   <i type="int" name="VOSKOWN">     0</i>
   <i type="logical" name="LHFCALC"> F  </i>
   <i type="string" name="PRECFOCK"></i>
   <i type="logical" name="LSYMGRAD"> F  </i>
   <i type="logical" name="LHFONE"> F  </i>
   <i type="logical" name="LRHFCALC"> F  </i>
   <i type="logical" name="LTHOMAS"> F  </i>
   <i type="logical" name="LMODELHF"> F  </i>
   <i type="logical" name="LFOCKACE"> F  </i>
   <i name="ENCUT4O">     -1.00000000</i>
   <i type="int" name="EXXOEP">     0</i>
   <i type="int" name="FOURORBIT">     0</i>
   <i name="AEXX">      0.00000000</i>
   <i name="HFALPHA">      0.00000000</i>
   <i name="MCALPHA">      0.00000000</i>
   <i name="ALDAX">      1.00000000</i>
   <i name="AGGAX">      1.00000000</i>
   <i name="ALDAC">      1.00000000</i>
   <i name="AGGAC">      1.00000000</i>
   <i type="int" name="NKREDX">     1</i>
   <i type="int" name="NKREDY">     1</i>
   <i type="int" name="NKREDZ">     1</i>
   <i type="logical" name="SHIFTRED"> F  </i>
   <i type="logical" name="ODDONLY"> F  </i>
   <i type="logical" name="EVENONLY"> F  </i>
   <i type="int" name="LMAXFOCK">     0</i>
   <i type="int" name="NMAXFOCKAE">     0</i>
   <i type="logical" name="LFOCKAEDFT"> F  </i>
   <i name="HFSCREEN">      0.00000000</i>
   <i name="HFSCREENC">      0.00000000</i>
   <i type="int" name="NBANDSGWLOW">     0</i>
  </separator>
  <separator name="vdW DFT" >
   <i type="logical" name="LUSE_VDW"> F  </i>
   <i name="Zab_VDW">     -0.84910000</i>
   <i name="PARAM1">      0.12340000</i>
   <i name="PARAM2">      1.00000000</i>
   <i name="PARAM3">      0.00000000</i>
  </separator>
  <separator name="model GW" >
   <i type="int" name="MODEL_GW">     0</i>
   <i name="MODEL_EPS0">     10.51163434</i>
   <i name="MODEL_ALPHA">      1.00000000</i>
  </separator>
  <separator name="linear response parameters" >
   <i type="logical" name="LEPSILON"> F  </i>
   <i type="logical" name="LRPA"> F  </i>
   <i type="logical" name="LNABLA"> F  </i>
   <i type="logical" name="LVEL"> F  </i>
   <i type="int" name="KINTER">     0</i>
   <i name="CSHIFT">      0.10000000</i>
   <i name="OMEGAMAX">     -1.00000000</i>
   <i name="DEG_THRESHOLD">      0.00200000</i>
   <i name="RTIME">     -0.10000000</i>
   <i name="WPLASMAI">      0.00000000</i>
   <v name="DFIELD">      0.00000000      0.00000000      0.00000000</v>
   <v name="WPLASMA">      0.00000000      0.00000000      0.00000000      0.00000000      0.00000000      0.00000000      0.00000000      0.00000000      0.00000000</v>
  </separator>
  <separator name="orbital magnetization" >
   <i type="logical" name="NUCIND"> F  </i>
   <v name="MAGPOS">      0.00000000      0.00000000      0.00000000</v>
   <i type="logical" name="LNICSALL"> T  </i>
   <i type="logical" name="ORBITALMAG"> F  </i>
   <i type="logical" name="LMAGBLOCH"> F  </i>
   <i type="logical" name="LCHIMAG"> F  </i>
   <i type="logical" name="LGAUGE"> T  </i>
   <i type="int" name="MAGATOM">     0</i>
   <v name="MAGDIPOL">      0.00000000      0.00000000      0.00000000</v>
   <v name="AVECCONST">      0.00000000      0.00000000      0.00000000</v>
  </separator>
  <separator name="response functions" >
   <i type="logical" name="LFINITE_TEMPERATURE"> F  </i>
   <i type="logical" name="LADDER"> F  </i>
   <i type="logical" name="LRPAFORCE"> F  </i>
   <i type="logical" name="LFXC"> F  </i>
   <i type="logical" name="LHARTREE"> T  </i>
   <i type="int" name="IBSE">     0</i>
   <v type="int" name="KPOINT">    -1     0     0     0</v>
   <i type="logical" name="LTCTC"> F  </i>
   <i type="logical" name="LTCTE"> F  </i>
   <i type="logical" name="LTETE"> F  </i>
   <i type="logical" name="LTRIPLET"> F  </i>
   <i type="logical" name="LFXCEPS"> F  </i>
   <i type="logical" name="LFXHEG"> F  </i>
   <i type="int" name="NATURALO">     2</i>
   <i type="logical" name="LHOLEGF"> F  </i>
   <i type="logical" name="L2ORDER"> F  </i>
   <i type="logical" name="LDMP1"> F  </i>
   <i type="logical" name="LMP2LT"> F  </i>
   <i type="logical" name="LSMP2LT"> F  </i>
   <i type="logical" name="LGWLF"> F  </i>
   <i name="ENCUTGW">     -2.00000000</i>
   <i name="ENCUTGWSOFT">     -2.00000000</i>
   <i name="ENCUTLF">     -1.00000000</i>
   <i type="logical" name="LESF_SPLINES"> F  </i>
   <i type="int" name="LMAXMP2">    -1</i>
   <i name="SCISSOR">      0.00000000</i>
   <i type="int" name="NOMEGA">     0</i>
   <i type="int" name="NOMEGAR">     0</i>
   <i type="int" name="NBANDSGW">    -1</i>
   <i type="int" name="NBANDSO">    -1</i>
   <i type="int" name="NBANDSV">    -1</i>
   <i type="int" name="NELM">     1</i>
   <i type="int" name="NELMHF">     1</i>
   <i type="int" name="DIM">     3</i>
   <i type="int" name="IESPILON">     4</i>
   <i type="int" name="ANTIRES">     0</i>
   <i name="OMEGAMAX">    -30.00000000</i>
   <i name="OMEGAMIN">    -30.00000000</i>
   <i name="OMEGATL">   -200.00000000</i>
   <i type="int" name="OMEGAGRID">     0</i>
   <i name="CSHIFT">     -0.10000000</i>
   <i type="logical" name="LSELFENERGY"> F  </i>
   <i type="logical" name="LSPECTRAL"> F  </i>
   <i type="logical" name="LSPECTRALGW"> F  </i>
   <i type="logical" name="LSINGLES"> F  </i>
   <i type="logical" name="LFERMIGW"> F  </i>
   <i type="logical" name="ODDONLYGW"> F  </i>
   <i type="logical" name="EVENONLYGW"> F  </i>
   <i type="int" name="NKREDLFX">     1</i>
   <i type="int" name="NKREDLFY">     1</i>
   <i type="int" name="NKREDLFZ">     1</i>
   <i type="int" name="MAXMEM">  2800</i>
   <i type="int" name="TELESCOPE">     0</i>
   <i type="int" name="NTAUPAR">    -1</i>
   <i type="int" name="NOMEGAPAR">    -1</i>
   <i name="DAMP_NEWTON">      0.80000001</i>
   <i name="LAMBDA">      1.00000000</i>
  </separator>
  <separator name="External order field" >
   <i name="OFIELD_KAPPA">      0.00000000</i>
   <v name="OFIELD_K">      0.00000000      0.00000000      0.00000000</v>
   <i name="OFIELD_Q6_NEAR">      0.00000000</i>
   <i name="OFIELD_Q6_FAR">      0.00000000</i>
   <i name="OFIELD_A">      0.00000000</i>
  </separator>
 </parameters>
 <atominfo>
  <atoms>     334 </atoms>
  <types>       2 </types>
  <array name="atoms" >
   <dimension dim="1">ion</dimension>
   <field type="string">element</field>
   <field type="int">atomtype</field>
   <set>
    <rc><c>Al</c><c>   1</c></rc>
    <rc><c>Al</c><c>   1</c></rc>
    <rc><c>Al</c><c>   1</c></rc>
    <rc><c>Al</c><c>   1</c></rc>
    <rc><c>Al</c><c>   1</c></rc>
    <rc><c>Al</c><c>   1</c></rc>
    <rc><c>Al</c><c>   1</c></rc>
    <rc><c>Al</c><c>   1</c></rc>
    <rc><c>Al</c><c>   1</c></rc>
    <rc><c>Al</c><c>   1</c></rc>
    <rc><c>Al</c><c>   1</c></rc>
    <rc><c>Al</c><c>   1</c></rc>
    <rc><c>Al</c><c>   1</c></rc>
    <rc><c>Al</c><c>   1</c></rc>
    <rc><c>Al</c><c>   1</c></rc>
    <rc><c>Al</c><c>   1</c></rc>
    <rc><c>Al</c><c>   1</c></rc>
    <rc><c>Al</c><c>   1</c></rc>
    <rc><c>Al</c><c>   1</c></rc>
    <rc><c>Al</c><c>   1</c></rc>
    <rc><c>Al</c><c>   1</c></rc>
    <rc><c>Al</c><c>   1</c></rc>
    <rc><c>Al</c><c>   1</c></rc>
    <rc><c>Al</c><c>   1</c></rc>
    <rc><c>Al</c><c>   1</c></rc>
    <rc><c>Al</c><c>   1</c></rc>
    <rc><c>Al</c><c>   1</c></rc>
    <rc><c>Al</c><c>   1</c></rc>
    <rc><c>Al</c><c>   1</c></rc>
    <rc><c>Al</c><c>   1</c></rc>
    <rc><c>Al</c><c>   1</c></rc>
    <rc><c>Al</c><c>   1</c></rc>
    <rc><c>Al</c><c>   1</c></rc>
    <rc><c>Al</c><c>   1</c></rc>
    <rc><c>Al</c><c>   1</c></rc>
    <rc><c>Al</c><c>   1</c></rc>
    <rc><c>Al</c><c>   1</c></rc>
    <rc><c>Al</c><c>   1</c></rc>
    <rc><c>Al</c><c>   1</c></rc>
    <rc><c>Al</c><c>   1</c></rc>
    <rc><c>Al</c><c>   1</c></rc>
    <rc><c>Al</c><c>   1</c></rc>
    <rc><c>Al</c><c>   1</c></rc>
    <rc><c>Al</c><c>   1</c></rc>
    <rc><c>Al</c><c>   1</c></rc>
    <rc><c>Al</c><c>   1</c></rc>
    <rc><c>Al</c><c>   1</c></rc>
    <rc><c>Al</c><c>   1</c></rc>
    <rc><c>Al</c><c>   1</c></rc>
    <rc><c>Al</c><c>   1</c></rc>
    <rc><c>Al</c><c>   1</c></rc>
    <rc><c>Al</c><c>   1</c></rc>
    <rc><c>Al</c><c>   1</c></rc>
    <rc><c>Al</c><c>   1</c></rc>
    <rc><c>Al</c><c>   1</c></rc>
    <rc><c>Al</c><c>   1</c></rc>
    <rc><c>Al</c><c>   1</c></rc>
    <rc><c>Al</c><c>   1</c></rc>
    <rc><c>Al</c><c>   1</c></rc>
    <rc><c>Al</c><c>   1</c></rc>
    <rc><c>Al</c><c>   1</c></rc>
    <rc><c>Al</c><c>   1</c></rc>
    <rc><c>Al</c><c>   1</c></rc>
    <rc><c>Al</c><c>   1</c></rc>
    <rc><c>Al</c><c>   1</c></rc>
    <rc><c>Al</c><c>   1</c></rc>
    <rc><c>Al</c><c>   1</c></rc>
    <rc><c>Al</c><c>   1</c></rc>
    <rc><c>Al</c><c>   1</c></rc>
    <rc><c>Al</c><c>   1</c></rc>
    <rc><c>Al</c><c>   1</c></rc>
    <rc><c>Al</c><c>   1</c></rc>
    <rc><c>Al</c><c>   1</c></rc>
    <rc><c>Al</c><c>   1</c></rc>
    <rc><c>Al</c><c>   1</c></rc>
    <rc><c>Al</c><c>   1</c></rc>
    <rc><c>Al</c><c>   1</c></rc>
    <rc><c>Al</c><c>   1</c></rc>
    <rc><c>Al</c><c>   1</c></rc>
    <rc><c>Al</c><c>   1</c></rc>
    <rc><c>Al</c><c>   1</c></rc>
    <rc><c>Al</c><c>   1</c></rc>
    <rc><c>Al</c><c>   1</c></rc>
    <rc><c>Al</c><c>   1</c></rc>
    <rc><c>Al</c><c>   1</c></rc>
    <rc><c>Al</c><c>   1</c></rc>
    <rc><c>Al</c><c>   1</c></rc>
    <rc><c>Al</c><c>   1</c></rc>
    <rc><c>Al</c><c>   1</c></rc>
    <rc><c>Al</c><c>   1</c></rc>
    <rc><c>Al</c><c>   1</c></rc>
    <rc><c>Al</c><c>   1</c></rc>
    <rc><c>Al</c><c>   1</c></rc>
    <rc><c>Al</c><c>   1</c></rc>
    <rc><c>Al</c><c>   1</c></rc>
    <rc><c>Al</c><c>   1</c></rc>
    <rc><c>Al</c><c>   1</c></rc>
    <rc><c>Al</c><c>   1</c></rc>
    <rc><c>Al</c><c>   1</c></rc>
    <rc><c>Al</c><c>   1</c></rc>
    <rc><c>Al</c><c>   1</c></rc>
    <rc><c>Al</c><c>   1</c></rc>
    <rc><c>Al</c><c>   1</c></rc>
    <rc><c>Al</c><c>   1</c></rc>
    <rc><c>Al</c><c>   1</c></rc>
    <rc><c>Al</c><c>   1</c></rc>
    <rc><c>Al</c><c>   1</c></rc>
    <rc><c>Al</c><c>   1</c></rc>
    <rc><c>O </c><c>   2</c></rc>
    <rc><c>O </c><c>   2</c></rc>
    <rc><c>O </c><c>   2</c></rc>
    <rc><c>O </c><c>   2</c></rc>
    <rc><c>O </c><c>   2</c></rc>
    <rc><c>O </c><c>   2</c></rc>
    <rc><c>O </c><c>   2</c></rc>
    <rc><c>O </c><c>   2</c></rc>
    <rc><c>O </c><c>   2</c></rc>
    <rc><c>O </c><c>   2</c></rc>
    <rc><c>O </c><c>   2</c></rc>
    <rc><c>O </c><c>   2</c></rc>
    <rc><c>O </c><c>   2</c></rc>
    <rc><c>O </c><c>   2</c></rc>
    <rc><c>O </c><c>   2</c></rc>
    <rc><c>O </c><c>   2</c></rc>
    <rc><c>O </c><c>   2</c></rc>
    <rc><c>O </c><c>   2</c></rc>
    <rc><c>O </c><c>   2</c></rc>
    <rc><c>O </c><c>   2</c></rc>
    <rc><c>O </c><c>   2</c></rc>
    <rc><c>O </c><c>   2</c></rc>
    <rc><c>O </c><c>   2</c></rc>
    <rc><c>O </c><c>   2</c></rc>
    <rc><c>O </c><c>   2</c></rc>
    <rc><c>O </c><c>   2</c></rc>
    <rc><c>O </c><c>   2</c></rc>
    <rc><c>O </c><c>   2</c></rc>
    <rc><c>O </c><c>   2</c></rc>
    <rc><c>O </c><c>   2</c></rc>
    <rc><c>O </c><c>   2</c></rc>
    <rc><c>O </c><c>   2</c></rc>
    <rc><c>O </c><c>   2</c></rc>
    <rc><c>O </c><c>   2</c></rc>
    <rc><c>O </c><c>   2</c></rc>
    <rc><c>O </c><c>   2</c></rc>
    <rc><c>O </c><c>   2</c></rc>
    <rc><c>O </c><c>   2</c></rc>
    <rc><c>O </c><c>   2</c></rc>
    <rc><c>O </c><c>   2</c></rc>
    <rc><c>O </c><c>   2</c></rc>
    <rc><c>O </c><c>   2</c></rc>
    <rc><c>O </c><c>   2</c></rc>
    <rc><c>O </c><c>   2</c></rc>
    <rc><c>O </c><c>   2</c></rc>
    <rc><c>O </c><c>   2</c></rc>
    <rc><c>O </c><c>   2</c></rc>
    <rc><c>O </c><c>   2</c></rc>
    <rc><c>O </c><c>   2</c></rc>
    <rc><c>O </c><c>   2</c></rc>
    <rc><c>O </c><c>   2</c></rc>
    <rc><c>O </c><c>   2</c></rc>
    <rc><c>O </c><c>   2</c></rc>
    <rc><c>O </c><c>   2</c></rc>
    <rc><c>O </c><c>   2</c></rc>
    <rc><c>O </c><c>   2</c></rc>
    <rc><c>O </c><c>   2</c></rc>
    <rc><c>O </c><c>   2</c></rc>
    <rc><c>O </c><c>   2</c></rc>
    <rc><c>O </c><c>   2</c></rc>
    <rc><c>O </c><c>   2</c></rc>
    <rc><c>O </c><c>   2</c></rc>
    <rc><c>O </c><c>   2</c></rc>
    <rc><c>O </c><c>   2</c></rc>
    <rc><c>O </c><c>   2</c></rc>
    <rc><c>O </c><c>   2</c></rc>
    <rc><c>O </c><c>   2</c></rc>
    <rc><c>O </c><c>   2</c></rc>
    <rc><c>O </c><c>   2</c></rc>
    <rc><c>O </c><c>   2</c></rc>
    <rc><c>O </c><c>   2</c></rc>
    <rc><c>O </c><c>   2</c></rc>
    <rc><c>O </c><c>   2</c></rc>
    <rc><c>O </c><c>   2</c></rc>
    <rc><c>O </c><c>   2</c></rc>
    <rc><c>O </c><c>   2</c></rc>
    <rc><c>O </c><c>   2</c></rc>
    <rc><c>O </c><c>   2</c></rc>
    <rc><c>O </c><c>   2</c></rc>
    <rc><c>O </c><c>   2</c></rc>
    <rc><c>O </c><c>   2</c></rc>
    <rc><c>O </c><c>   2</c></rc>
    <rc><c>O </c><c>   2</c></rc>
    <rc><c>O </c><c>   2</c></rc>
    <rc><c>O </c><c>   2</c></rc>
    <rc><c>O </c><c>   2</c></rc>
    <rc><c>O </c><c>   2</c></rc>
    <rc><c>O </c><c>   2</c></rc>
    <rc><c>O </c><c>   2</c></rc>
    <rc><c>O </c><c>   2</c></rc>
    <rc><c>O </c><c>   2</c></rc>
    <rc><c>O </c><c>   2</c></rc>
    <rc><c>O </c><c>   2</c></rc>
    <rc><c>O </c><c>   2</c></rc>
    <rc><c>O </c><c>   2</c></rc>
    <rc><c>O </c><c>   2</c></rc>
    <rc><c>O </c><c>   2</c></rc>
    <rc><c>O </c><c>   2</c></rc>
    <rc><c>O </c><c>   2</c></rc>
    <rc><c>O </c><c>   2</c></rc>
    <rc><c>O </c><c>   2</c></rc>
    <rc><c>O </c><c>   2</c></rc>
    <rc><c>O </c><c>   2</c></rc>
    <rc><c>O </c><c>   2</c></rc>
    <rc><c>O </c><c>   2</c></rc>
    <rc><c>O </c><c>   2</c></rc>
    <rc><c>O </c><c>   2</c></rc>
    <rc><c>O </c><c>   2</c></rc>
    <rc><c>O </c><c>   2</c></rc>
    <rc><c>O </c><c>   2</c></rc>
    <rc><c>O </c><c>   2</c></rc>
    <rc><c>O </c><c>   2</c></rc>
    <rc><c>O </c><c>   2</c></rc>
    <rc><c>O </c><c>   2</c></rc>
    <rc><c>O </c><c>   2</c></rc>
    <rc><c>O </c><c>   2</c></rc>
    <rc><c>O </c><c>   2</c></rc>
    <rc><c>O </c><c>   2</c></rc>
    <rc><c>O </c><c>   2</c></rc>
    <rc><c>O </c><c>   2</c></rc>
    <rc><c>O </c><c>   2</c></rc>
    <rc><c>O </c><c>   2</c></rc>
    <rc><c>O </c><c>   2</c></rc>
    <rc><c>O </c><c>   2</c></rc>
    <rc><c>O </c><c>   2</c></rc>
    <rc><c>O </c><c>   2</c></rc>
    <rc><c>O </c><c>   2</c></rc>
    <rc><c>O </c><c>   2</c></rc>
    <rc><c>O </c><c>   2</c></rc>
    <rc><c>O </c><c>   2</c></rc>
    <rc><c>O </c><c>   2</c></rc>
    <rc><c>O </c><c>   2</c></rc>
    <rc><c>O </c><c>   2</c></rc>
    <rc><c>O </c><c>   2</c></rc>
    <rc><c>O </c><c>   2</c></rc>
    <rc><c>O </c><c>   2</c></rc>
    <rc><c>O </c><c>   2</c></rc>
    <rc><c>O </c><c>   2</c></rc>
    <rc><c>O </c><c>   2</c></rc>
    <rc><c>O </c><c>   2</c></rc>
    <rc><c>O </c><c>   2</c></rc>
    <rc><c>O </c><c>   2</c></rc>
    <rc><c>O </c><c>   2</c></rc>
    <rc><c>O </c><c>   2</c></rc>
    <rc><c>O </c><c>   2</c></rc>
    <rc><c>O </c><c>   2</c></rc>
    <rc><c>O </c><c>   2</c></rc>
    <rc><c>O </c><c>   2</c></rc>
    <rc><c>O </c><c>   2</c></rc>
    <rc><c>O </c><c>   2</c></rc>
    <rc><c>O </c><c>   2</c></rc>
    <rc><c>O </c><c>   2</c></rc>
    <rc><c>O </c><c>   2</c></rc>
    <rc><c>O </c><c>   2</c></rc>
    <rc><c>O </c><c>   2</c></rc>
    <rc><c>O </c><c>   2</c></rc>
    <rc><c>O </c><c>   2</c></rc>
    <rc><c>O </c><c>   2</c></rc>
    <rc><c>O </c><c>   2</c></rc>
    <rc><c>O </c><c>   2</c></rc>
    <rc><c>O </c><c>   2</c></rc>
    <rc><c>O </c><c>   2</c></rc>
    <rc><c>O </c><c>   2</c></rc>
    <rc><c>O </c><c>   2</c></rc>
    <rc><c>O </c><c>   2</c></rc>
    <rc><c>O </c><c>   2</c></rc>
    <rc><c>O </c><c>   2</c></rc>
    <rc><c>O </c><c>   2</c></rc>
    <rc><c>O </c><c>   2</c></rc>
    <rc><c>O </c><c>   2</c></rc>
    <rc><c>O </c><c>   2</c></rc>
    <rc><c>O </c><c>   2</c></rc>
    <rc><c>O </c><c>   2</c></rc>
    <rc><c>O </c><c>   2</c></rc>
    <rc><c>O </c><c>   2</c></rc>
    <rc><c>O </c><c>   2</c></rc>
    <rc><c>O </c><c>   2</c></rc>
    <rc><c>O </c><c>   2</c></rc>
    <rc><c>O </c><c>   2</c></rc>
    <rc><c>O </c><c>   2</c></rc>
    <rc><c>O </c><c>   2</c></rc>
    <rc><c>O </c><c>   2</c></rc>
    <rc><c>O </c><c>   2</c></rc>
    <rc><c>O </c><c>   2</c></rc>
    <rc><c>O </c><c>   2</c></rc>
    <rc><c>O </c><c>   2</c></rc>
    <rc><c>O </c><c>   2</c></rc>
    <rc><c>O </c><c>   2</c></rc>
    <rc><c>O </c><c>   2</c></rc>
    <rc><c>O </c><c>   2</c></rc>
    <rc><c>O </c><c>   2</c></rc>
    <rc><c>O </c><c>   2</c></rc>
    <rc><c>O </c><c>   2</c></rc>
    <rc><c>O </c><c>   2</c></rc>
    <rc><c>O </c><c>   2</c></rc>
    <rc><c>O </c><c>   2</c></rc>
    <rc><c>O </c><c>   2</c></rc>
    <rc><c>O </c><c>   2</c></rc>
    <rc><c>O </c><c>   2</c></rc>
    <rc><c>O </c><c>   2</c></rc>
    <rc><c>O </c><c>   2</c></rc>
    <rc><c>O </c><c>   2</c></rc>
    <rc><c>O </c><c>   2</c></rc>
    <rc><c>O </c><c>   2</c></rc>
    <rc><c>O </c><c>   2</c></rc>
    <rc><c>O </c><c>   2</c></rc>
    <rc><c>O </c><c>   2</c></rc>
    <rc><c>O </c><c>   2</c></rc>
    <rc><c>O </c><c>   2</c></rc>
    <rc><c>O </c><c>   2</c></rc>
    <rc><c>O </c><c>   2</c></rc>
    <rc><c>O </c><c>   2</c></rc>
    <rc><c>O </c><c>   2</c></rc>
    <rc><c>O </c><c>   2</c></rc>
    <rc><c>O </c><c>   2</c></rc>
    <rc><c>O </c><c>   2</c></rc>
    <rc><c>O </c><c>   2</c></rc>
    <rc><c>O </c><c>   2</c></rc>
    <rc><c>O </c><c>   2</c></rc>
    <rc><c>O </c><c>   2</c></rc>
    <rc><c>O </c><c>   2</c></rc>
    <rc><c>O </c><c>   2</c></rc>
    <rc><c>O </c><c>   2</c></rc>
    <rc><c>O </c><c>   2</c></rc>
    <rc><c>O </c><c>   2</c></rc>
    <rc><c>O </c><c>   2</c></rc>
   </set>
  </array>
  <array name="atomtypes" >
   <dimension dim="1">type</dimension>
   <field type="int">atomspertype</field>
   <field type="string">element</field>
   <field>mass</field>
   <field>valence</field>
   <field type="string">pseudopotential</field>
   <set>
    <rc><c> 108</c><c>Al</c><c>     26.98200000</c><c>      3.00000000</c><c>  PAW Al_GW 19Mar2012                   </c></rc>
    <rc><c> 226</c><c>O </c><c>     16.00000000</c><c>      6.00000000</c><c>  PAW O_GW 19Mar2012                    </c></rc>
   </set>
  </array>
 </atominfo>
 <structure name="initialpos" >
  <crystal>
   <varray name="basis" >
    <v>      14.41508400       0.00000000       0.00000000 </v>
    <v>      -7.20754200      12.48382800       0.00000000 </v>
    <v>       0.00000000       0.00000000      32.51625400 </v>
   </varray>
   <i name="volume">   5851.47644655 </i>
   <varray name="rec_basis" >
    <v>       0.06937178       0.04005182      -0.00000000 </v>
    <v>       0.00000000       0.08010363       0.00000000 </v>
    <v>       0.00000000      -0.00000000       0.03075385 </v>
   </varray>
  </crystal>
  <varray name="positions" >
   <v>       0.00000000       0.00000000       0.05966082 </v>
   <v>       0.11111100       0.22222233       0.00756853 </v>
   <v>       0.11111100       0.22222233       0.12689017 </v>
   <v>       0.22222233       0.11111100       0.07479748 </v>
   <v>       0.22222233       0.11111100       0.19411912 </v>
   <v>       0.00000000       0.00000000       0.14202683 </v>
   <v>       0.00000000       0.00000000       0.26134848 </v>
   <v>       0.11111100       0.22222233       0.20925619 </v>
   <v>       0.11111100       0.22222233       0.32857783 </v>
   <v>       0.22222233       0.11111100       0.27648513 </v>
   <v>       0.22222233       0.11111100       0.39580678 </v>
   <v>       0.00000000       0.00000000       0.34371449 </v>
   <v>       0.00000000       0.33333333       0.05966082 </v>
   <v>       0.11111100       0.55555567       0.00756853 </v>
   <v>       0.11111100       0.55555567       0.12689017 </v>
   <v>       0.22222233       0.44444433       0.07479748 </v>
   <v>       0.22222233       0.44444433       0.19411912 </v>
   <v>       0.00000000       0.33333333       0.14202683 </v>
   <v>       0.00000000       0.33333333       0.26134848 </v>
   <v>       0.11111100       0.55555567       0.20925619 </v>
   <v>       0.11111100       0.55555567       0.32857783 </v>
   <v>       0.22222233       0.44444433       0.27648513 </v>
   <v>       0.22222233       0.44444433       0.39580678 </v>
   <v>       0.00000000       0.33333333       0.34371449 </v>
   <v>       0.00000000       0.66666667       0.05966082 </v>
   <v>       0.11111100       0.88888900       0.00756853 </v>
   <v>       0.11111100       0.88888900       0.12689017 </v>
   <v>       0.22222233       0.77777767       0.07479748 </v>
   <v>       0.22222233       0.77777767       0.19411912 </v>
   <v>       0.00000000       0.66666667       0.14202683 </v>
   <v>       0.00000000       0.66666667       0.26134848 </v>
   <v>       0.11111100       0.88888900       0.20925619 </v>
   <v>       0.11111100       0.88888900       0.32857783 </v>
   <v>       0.22222233       0.77777767       0.27648513 </v>
   <v>       0.22222233       0.77777767       0.39580678 </v>
   <v>       0.00000000       0.66666667       0.34371449 </v>
   <v>       0.33333333       0.00000000       0.05966082 </v>
   <v>       0.44444433       0.22222233       0.00756853 </v>
   <v>       0.44444433       0.22222233       0.12689017 </v>
   <v>       0.55555567       0.11111100       0.07479748 </v>
   <v>       0.55555567       0.11111100       0.19411912 </v>
   <v>       0.33333333       0.00000000       0.14202683 </v>
   <v>       0.33333333       0.00000000       0.26134848 </v>
   <v>       0.44444433       0.22222233       0.20925619 </v>
   <v>       0.44444433       0.22222233       0.32857783 </v>
   <v>       0.55555567       0.11111100       0.27648513 </v>
   <v>       0.55555567       0.11111100       0.39580678 </v>
   <v>       0.33333333       0.00000000       0.34371449 </v>
   <v>       0.33333333       0.33333333       0.05966082 </v>
   <v>       0.44444433       0.55555567       0.00756853 </v>
   <v>       0.44444433       0.55555567       0.12689017 </v>
   <v>       0.55555567       0.44444433       0.07479748 </v>
   <v>       0.55555567       0.44444433       0.19411912 </v>
   <v>       0.33333333       0.33333333       0.14202683 </v>
   <v>       0.33333333       0.33333333       0.26134848 </v>
   <v>       0.44444433       0.55555567       0.20925619 </v>
   <v>       0.44444433       0.55555567       0.32857783 </v>
   <v>       0.55555567       0.44444433       0.27648513 </v>
   <v>       0.55555567       0.44444433       0.39580678 </v>
   <v>       0.33333333       0.33333333       0.34371449 </v>
   <v>       0.33333333       0.66666667       0.05966082 </v>
   <v>       0.44444433       0.88888900       0.00756853 </v>
   <v>       0.44444433       0.88888900       0.12689017 </v>
   <v>       0.55555567       0.77777767       0.07479748 </v>
   <v>       0.55555567       0.77777767       0.19411912 </v>
   <v>       0.33333333       0.66666667       0.14202683 </v>
   <v>       0.33333333       0.66666667       0.26134848 </v>
   <v>       0.44444433       0.88888900       0.20925619 </v>
   <v>       0.44444433       0.88888900       0.32857783 </v>
   <v>       0.55555567       0.77777767       0.27648513 </v>
   <v>       0.55555567       0.77777767       0.39580678 </v>
   <v>       0.33333333       0.66666667       0.34371449 </v>
   <v>       0.66666667       0.00000000       0.05966082 </v>
   <v>       0.77777767       0.22222233       0.00756853 </v>
   <v>       0.77777767       0.22222233       0.12689017 </v>
   <v>       0.88888900       0.11111100       0.07479748 </v>
   <v>       0.88888900       0.11111100       0.19411912 </v>
   <v>       0.66666667       0.00000000       0.14202683 </v>
   <v>       0.66666667       0.00000000       0.26134848 </v>
   <v>       0.77777767       0.22222233       0.20925619 </v>
   <v>       0.77777767       0.22222233       0.32857783 </v>
   <v>       0.88888900       0.11111100       0.27648513 </v>
   <v>       0.88888900       0.11111100       0.39580678 </v>
   <v>       0.66666667       0.00000000       0.34371449 </v>
   <v>       0.66666667       0.33333333       0.05966082 </v>
   <v>       0.77777767       0.55555567       0.00756853 </v>
   <v>       0.77777767       0.55555567       0.12689017 </v>
   <v>       0.88888900       0.44444433       0.07479748 </v>
   <v>       0.88888900       0.44444433       0.19411912 </v>
   <v>       0.66666667       0.33333333       0.14202683 </v>
   <v>       0.66666667       0.33333333       0.26134848 </v>
   <v>       0.77777767       0.55555567       0.20925619 </v>
   <v>       0.77777767       0.55555567       0.32857783 </v>
   <v>       0.88888900       0.44444433       0.27648513 </v>
   <v>       0.88888900       0.44444433       0.39580678 </v>
   <v>       0.66666667       0.33333333       0.34371449 </v>
   <v>       0.66666667       0.66666667       0.05966082 </v>
   <v>       0.77777767       0.88888900       0.00756853 </v>
   <v>       0.77777767       0.88888900       0.12689017 </v>
   <v>       0.88888900       0.77777767       0.07479748 </v>
   <v>       0.88888900       0.77777767       0.19411912 </v>
   <v>       0.66666667       0.66666667       0.14202683 </v>
   <v>       0.66666667       0.66666667       0.26134848 </v>
   <v>       0.77777767       0.88888900       0.20925619 </v>
   <v>       0.77777767       0.88888900       0.32857783 </v>
   <v>       0.88888900       0.77777767       0.27648513 </v>
   <v>       0.88888900       0.77777767       0.39580678 </v>
   <v>       0.66666667       0.66666667       0.34371449 </v>
   <v>       0.10204867       0.00000000       0.10084383 </v>
   <v>       0.22222233       0.00906233       0.03361447 </v>
   <v>       0.00000000       0.10204867       0.10084383 </v>
   <v>       0.23128467       0.23128467       0.10084383 </v>
   <v>       0.32427100       0.21315967       0.03361447 </v>
   <v>       0.12017367       0.11111100       0.03361447 </v>
   <v>       0.32427100       0.11111100       0.23530213 </v>
   <v>       0.11111100       0.12017367       0.16807318 </v>
   <v>       0.22222233       0.21315967       0.23530213 </v>
   <v>       0.12017367       0.00906233       0.23530213 </v>
   <v>       0.21315967       0.32427100       0.16807318 </v>
   <v>       0.00906233       0.22222233       0.16807318 </v>
   <v>       0.21315967       0.22222233       0.36976083 </v>
   <v>       0.00000000       0.23128467       0.30253148 </v>
   <v>       0.11111100       0.32427100       0.36976083 </v>
   <v>       0.00906233       0.12017367       0.36976083 </v>
   <v>       0.10204867       0.10204867       0.30253148 </v>
   <v>       0.23128467       0.00000000       0.30253148 </v>
   <v>       0.10204867       0.33333333       0.10084383 </v>
   <v>       0.22222233       0.34239567       0.03361447 </v>
   <v>       0.00000000       0.43538200       0.10084383 </v>
   <v>       0.23128467       0.56461800       0.10084383 </v>
   <v>       0.32427100       0.54649300       0.03361447 </v>
   <v>       0.12017367       0.44444433       0.03361447 </v>
   <v>       0.32427100       0.44444433       0.23530213 </v>
   <v>       0.11111100       0.45350700       0.16807318 </v>
   <v>       0.22222233       0.54649300       0.23530213 </v>
   <v>       0.12017367       0.34239567       0.23530213 </v>
   <v>       0.21315967       0.65760433       0.16807318 </v>
   <v>       0.00906233       0.55555567       0.16807318 </v>
   <v>       0.21315967       0.55555567       0.36976083 </v>
   <v>       0.00000000       0.56461800       0.30253148 </v>
   <v>       0.11111100       0.65760433       0.36976083 </v>
   <v>       0.00906233       0.45350700       0.36976083 </v>
   <v>       0.10204867       0.43538200       0.30253148 </v>
   <v>       0.23128467       0.33333333       0.30253148 </v>
   <v>       0.10204867       0.66666667       0.10084383 </v>
   <v>       0.22222233       0.67572900       0.03361447 </v>
   <v>       0.00000000       0.76871533       0.10084383 </v>
   <v>       0.23128467       0.89795133       0.10084383 </v>
   <v>       0.32427100       0.87982633       0.03361447 </v>
   <v>       0.12017367       0.77777767       0.03361447 </v>
   <v>       0.32427100       0.77777767       0.23530213 </v>
   <v>       0.11111100       0.78684033       0.16807318 </v>
   <v>       0.22222233       0.87982633       0.23530213 </v>
   <v>       0.12017367       0.67572900       0.23530213 </v>
   <v>       0.21315967       0.99093767       0.16807318 </v>
   <v>       0.00906233       0.88888900       0.16807318 </v>
   <v>       0.21315967       0.88888900       0.36976083 </v>
   <v>       0.00000000       0.89795133       0.30253148 </v>
   <v>       0.11111100       0.99093767       0.36976083 </v>
   <v>       0.00906233       0.78684033       0.36976083 </v>
   <v>       0.10204867       0.76871533       0.30253148 </v>
   <v>       0.23128467       0.66666667       0.30253148 </v>
   <v>       0.43538200       0.00000000       0.10084383 </v>
   <v>       0.55555567       0.00906233       0.03361447 </v>
   <v>       0.33333333       0.10204867       0.10084383 </v>
   <v>       0.56461800       0.23128467       0.10084383 </v>
   <v>       0.65760433       0.21315967       0.03361447 </v>
   <v>       0.45350700       0.11111100       0.03361447 </v>
   <v>       0.65760433       0.11111100       0.23530213 </v>
   <v>       0.44444433       0.12017367       0.16807318 </v>
   <v>       0.55555567       0.21315967       0.23530213 </v>
   <v>       0.45350700       0.00906233       0.23530213 </v>
   <v>       0.54649300       0.32427100       0.16807318 </v>
   <v>       0.34239567       0.22222233       0.16807318 </v>
   <v>       0.54649300       0.22222233       0.36976083 </v>
   <v>       0.33333333       0.23128467       0.30253148 </v>
   <v>       0.44444433       0.32427100       0.36976083 </v>
   <v>       0.34239567       0.12017367       0.36976083 </v>
   <v>       0.43538200       0.10204867       0.30253148 </v>
   <v>       0.56461800       0.00000000       0.30253148 </v>
   <v>       0.43538200       0.33333333       0.10084383 </v>
   <v>       0.55555567       0.34239567       0.03361447 </v>
   <v>       0.33333333       0.43538200       0.10084383 </v>
   <v>       0.56461800       0.56461800       0.10084383 </v>
   <v>       0.65760433       0.54649300       0.03361447 </v>
   <v>       0.45350700       0.44444433       0.03361447 </v>
   <v>       0.65760433       0.44444433       0.23530213 </v>
   <v>       0.44444433       0.45350700       0.16807318 </v>
   <v>       0.55555567       0.54649300       0.23530213 </v>
   <v>       0.45350700       0.34239567       0.23530213 </v>
   <v>       0.54649300       0.65760433       0.16807318 </v>
   <v>       0.34239567       0.55555567       0.16807318 </v>
   <v>       0.54649300       0.55555567       0.36976083 </v>
   <v>       0.33333333       0.56461800       0.30253148 </v>
   <v>       0.44444433       0.65760433       0.36976083 </v>
   <v>       0.34239567       0.45350700       0.36976083 </v>
   <v>       0.43538200       0.43538200       0.30253148 </v>
   <v>       0.56461800       0.33333333       0.30253148 </v>
   <v>       0.43538200       0.66666667       0.10084383 </v>
   <v>       0.55555567       0.67572900       0.03361447 </v>
   <v>       0.33333333       0.76871533       0.10084383 </v>
   <v>       0.56461800       0.89795133       0.10084383 </v>
   <v>       0.65760433       0.87982633       0.03361447 </v>
   <v>       0.45350700       0.77777767       0.03361447 </v>
   <v>       0.65760433       0.77777767       0.23530213 </v>
   <v>       0.44444433       0.78684033       0.16807318 </v>
   <v>       0.55555567       0.87982633       0.23530213 </v>
   <v>       0.45350700       0.67572900       0.23530213 </v>
   <v>       0.54649300       0.99093767       0.16807318 </v>
   <v>       0.34239567       0.88888900       0.16807318 </v>
   <v>       0.54649300       0.88888900       0.36976083 </v>
   <v>       0.33333333       0.89795133       0.30253148 </v>
   <v>       0.44444433       0.99093767       0.36976083 </v>
   <v>       0.34239567       0.78684033       0.36976083 </v>
   <v>       0.43538200       0.76871533       0.30253148 </v>
   <v>       0.56461800       0.66666667       0.30253148 </v>
   <v>       0.76871533       0.00000000       0.10084383 </v>
   <v>       0.88888900       0.00906233       0.03361447 </v>
[...]
   <v>       0.00063292       0.33371446       0.25791149 </v>
   <v>       0.11091588       0.55574630       0.20740827 </v>
   <v>       0.11208720       0.55165003       0.32816558 </v>
   <v>       0.22244403       0.44452702       0.27249908 </v>
   <v>       0.22440389       0.43721022       0.37714974 </v>
   <v>      -0.00051870       0.32903357       0.33716461 </v>
   <v>       0.00002148       0.66662160       0.05885605 </v>
   <v>       0.11110501       0.88886423       0.02986611 </v>
   <v>       0.11126995       0.88894229       0.12621926 </v>
   <v>       0.22217187       0.77769668       0.06856761 </v>
   <v>       0.22217841       0.77794165       0.19086584 </v>
   <v>      -0.00018532       0.66672982       0.13968470 </v>
   <v>      -0.00055255       0.66588790       0.25829733 </v>
   <v>       0.11127152       0.88859197       0.20713024 </v>
   <v>       0.10759410       0.88811359       0.32969510 </v>
   <v>       0.22208332       0.77755597       0.27249908 </v>
   <v>       0.21280667       0.77559611       0.37714974 </v>
   <v>       0.00016332       0.67020294       0.33754567 </v>
   <v>       0.33331143      -0.00004382       0.05887641 </v>
   <v>       0.44450302       0.22221792       0.02999367 </v>
   <v>       0.44434675       0.22212498       0.12613075 </v>
   <v>       0.55551238       0.11108779       0.06861175 </v>
   <v>       0.55548679       0.11093395       0.19068226 </v>
   <v>       0.33315519      -0.00006712       0.13970420 </v>
   <v>       0.33308154      -0.00063292       0.25791149 </v>
   <v>       0.44473721       0.22282251       0.20717886 </v>
   <v>       0.44287005       0.22028634       0.32905286 </v>
   <v>       0.55570965       0.11125061       0.27199472 </v>
   <v>       0.55586468       0.11167135       0.37276601 </v>
   <v>       0.32955227       0.00051870       0.33716461 </v>
   <v>       0.33337840       0.33339988       0.05885605 </v>
   <v>       0.44446636       0.55556738       0.02991338 </v>
   <v>       0.44428255       0.55554746       0.12613575 </v>
   <v>       0.55557574       0.44448762       0.06861175 </v>
   <v>       0.55544750       0.44451321       0.19068226 </v>
   <v>       0.33327018       0.33308487       0.13968470 </v>
   <v>       0.33411210       0.33355956       0.25829733 </v>
   <v>       0.44425370       0.55516991       0.20740827 </v>
   <v>       0.44834997       0.56043750       0.32816558 </v>
   <v>       0.55554129       0.44429035       0.27199472 </v>
   <v>       0.55580700       0.44413532       0.37276601 </v>
   <v>       0.32979706       0.32996038       0.33754567 </v>
   <v>       0.33333333       0.66666667       0.05889411 </v>
   <v>       0.44443262       0.88889931       0.02991338 </v>
   <v>       0.44445254       0.88873542       0.12613575 </v>
   <v>       0.55552514       0.77782813       0.06856761 </v>
   <v>       0.55576357       0.77782159       0.19086584 </v>
   <v>       0.33333333       0.66666667       0.13966397 </v>
   <v>       0.33333333       0.66666667       0.25801321 </v>
   <v>       0.44483009       0.88908412       0.20740827 </v>
   <v>       0.43956250       0.88791280       0.32816558 </v>
   <v>       0.55547298       0.77791668       0.27249908 </v>
   <v>       0.56278978       0.78719333       0.37714974 </v>
   <v>       0.33333333       0.66666667       0.33848488 </v>
   <v>       0.66660012      -0.00002148       0.05885605 </v>
   <v>       0.77778208       0.22228543       0.02999367 </v>
   <v>       0.77787502       0.22222211       0.12613075 </v>
   <v>       0.88886178       0.11113523       0.06853270 </v>
   <v>       0.88871039       0.11103339       0.19066003 </v>
   <v>       0.66691513       0.00018532       0.13968470 </v>
   <v>       0.66644044       0.00055255       0.25829733 </v>
   <v>       0.77717749       0.22191503       0.20717886 </v>
   <v>       0.77971366       0.22258404       0.32905286 </v>
   <v>       0.88873307       0.11135765       0.27250310 </v>
   <v>       0.89709149       0.11498035       0.38072586 </v>
   <v>       0.67003962      -0.00016332       0.33754567 </v>
   <v>       0.66666667       0.33333333       0.05892093 </v>
   <v>       0.77771457       0.55549698       0.02999367 </v>
   <v>       0.77777789       0.55565325       0.12613075 </v>
   <v>       0.88891221       0.44442426       0.06861175 </v>
   <v>       0.88906605       0.44455250       0.19068226 </v>
   <v>       0.66666667       0.33333333       0.13961339 </v>
   <v>       0.66666667       0.33333333       0.25873601 </v>
   <v>       0.77808497       0.55526279       0.20717886 </v>
   <v>       0.77741596       0.55712995       0.32905286 </v>
   <v>       0.88874939       0.44445871       0.27199472 </v>
   <v>       0.88832865       0.44419300       0.37276601 </v>
   <v>       0.66666667       0.33333333       0.33866656 </v>
   <v>       0.66664475       0.66668857       0.05887641 </v>
   <v>       0.77775889       0.88889499       0.02986611 </v>
   <v>       0.77767200       0.88873005       0.12621926 </v>
   <v>       0.88886477       0.77772621       0.06853270 </v>
   <v>       0.88896661       0.77767666       0.19066003 </v>
   <v>       0.66677770       0.66684481       0.13970420 </v>
   <v>       0.66628554       0.66691846       0.25791149 </v>
   <v>       0.77732012       0.88872848       0.20713024 </v>
   <v>       0.78051916       0.89240590       0.32969510 </v>
   <v>       0.88864235       0.77737509       0.27250310 </v>
   <v>       0.88501965       0.78211081       0.38072586 </v>
   <v>       0.67096643       0.67044773       0.33716461 </v>
   <v>       0.10360383       0.00012135       0.09899752 </v>
   <v>       0.22748604       0.00918041       0.03283522 </v>
   <v>      -0.00012135       0.10348247       0.09899752 </v>
   <v>       0.22998009       0.22971560       0.09892835 </v>
   <v>       0.32423438       0.21833262       0.03284879 </v>
   <v>       0.11509497       0.10585076       0.03278200 </v>
   <v>       0.32501646       0.11172926       0.23234498 </v>
   <v>       0.11116423       0.11996782       0.16613510 </v>
   <v>       0.22262719       0.21364393       0.23185376 </v>
   <v>       0.12140895       0.00929857       0.23120180 </v>
   <v>       0.21330135       0.32450291       0.16592419 </v>
   <v>       0.00900923       0.22249492       0.16608001 </v>
   <v>       0.22176594       0.22281823       0.36443496 </v>
   <v>       0.00148023       0.23139707       0.29799518 </v>
   <v>       0.10507240       0.32201655       0.36469974 </v>
   <v>       0.00875161       0.11359649       0.36114655 </v>
   <v>       0.10272119       0.10442380       0.29696872 </v>
   <v>       0.22991684      -0.00148023       0.29799518 </v>
   <v>       0.10356478       0.33363158       0.09897655 </v>
   <v>       0.22749905       0.34256533       0.03283352 </v>
   <v>      -0.00033503       0.43671606       0.09894230 </v>
   <v>       0.23003722       0.56296770       0.09894420 </v>
   <v>       0.32414079       0.55165937       0.03289586 </v>
   <v>       0.11506277       0.43917517       0.03287932 </v>
   <v>       0.32478838       0.44476648       0.23253378 </v>
   <v>       0.11119963       0.45340552       0.16598271 </v>
   <v>       0.22237050       0.54643142       0.23228554 </v>
   <v>       0.12031282       0.34231702       0.23218191 </v>
   <v>       0.21306992       0.65772605       0.16607378 </v>
   <v>       0.00894035       0.55555726       0.16605374 </v>
   <v>       0.22100842       0.55285158       0.36409164 </v>
   <v>      -0.00096576       0.56187775       0.29855005 </v>
   <v>       0.10471057       0.65222524       0.36039931 </v>
   <v>       0.00721914       0.44392940       0.36475586 </v>
   <v>       0.10218616       0.43563137       0.29863904 </v>
   <v>       0.22941613       0.33203833       0.30009640 </v>
   <v>       0.10373275       0.66704027       0.09890369 </v>
   <v>       0.22751892       0.67585921       0.03289586 </v>
   <v>      -0.00026449       0.77001991       0.09892835 </v>
   <v>       0.23006681       0.89643522       0.09897655 </v>
   <v>       0.32411274       0.88493723       0.03287932 </v>
   <v>       0.11506662       0.77250095       0.03283352 </v>
   <v>       0.32406125       0.77762950       0.23228554 </v>
   <v>       0.11120123       0.78669865       0.16592419 </v>
   <v>       0.22200453       0.87968718       0.23218191 </v>
   <v>       0.11997843       0.67521162       0.23253378 </v>
   <v>       0.21348536       0.99099077       0.16608001 </v>
   <v>       0.00880326       0.88883577       0.16613510 </v>
   <v>       0.21694382       0.89492760       0.36469974 </v>
   <v>       0.00170261       0.89727881       0.29696872 </v>
   <v>       0.10484454       0.99124839       0.36114655 </v>
   <v>       0.00105196       0.77823406       0.36443496 </v>
   <v>       0.10262220       0.77058387       0.30009640 </v>
   <v>       0.23002248       0.66549691       0.29866759 </v>
   <v>       0.43705109       0.00033503       0.09894230 </v>
   <v>       0.56075137       0.00920391       0.03294206 </v>
   <v>       0.33302488       0.10337851       0.09893228 </v>
   <v>       0.56335862       0.22966834       0.09898478 </v>
   <v>       0.65748193       0.21835601       0.03293382 </v>
   <v>       0.44840707       0.10587281       0.03295949 </v>
   <v>       0.65733825       0.11159557       0.23191428 </v>
   <v>       0.44469245       0.12010835       0.16602460 </v>
   <v>       0.55561025       0.21358301       0.23234904 </v>
   <v>       0.45343537       0.00899958       0.23203708 </v>
   <v>       0.54647357       0.32436091       0.16605218 </v>
   <v>       0.34243404       0.22222590       0.16609736 </v>
   <v>       0.55170651       0.22727371       0.36514016 </v>
   <v>       0.33387513       0.23165673       0.29815017 </v>
   <v>       0.44145817       0.32610004       0.36207977 </v>
   <v>       0.33768383       0.11442429       0.36179002 </v>
   <v>       0.43677856       0.10334891       0.29938631 </v>
   <v>       0.56284351       0.00096576       0.29855005 </v>
   <v>       0.43694334       0.33359114       0.09907275 </v>
   <v>       0.56087441       0.34251807       0.03293382 </v>
   <v>       0.33295973       0.43669248       0.09890369 </v>
   <v>       0.56328394       0.56294891       0.09894230 </v>
   <v>       0.65746607       0.55159293       0.03295949 </v>
   <v>       0.44845287       0.43924863       0.03294206 </v>
   <v>       0.65797309       0.44438975       0.23234904 </v>
   <v>       0.44444274       0.45338342       0.16605374 </v>
   <v>       0.55556455       0.54656463       0.23203708 </v>
   <v>       0.45425766       0.34266175       0.23191428 </v>
   <v>       0.54659448       0.65779445       0.16598271 </v>
   <v>       0.34227395       0.55534421       0.16607378 </v>
   <v>       0.55607060       0.56329008       0.36475586 </v>
   <v>       0.33450309       0.56452557       0.29866759 </v>
   <v>       0.44714842       0.66815717       0.36409164 </v>
   <v>       0.34777476       0.45248566       0.36039931 </v>
   <v>       0.43812225       0.43715649       0.29855005 </v>
   <v>       0.56384607       0.33369487       0.29937171 </v>
   <v>       0.43703230       0.66706952       0.09894420 </v>
   <v>       0.56082483       0.67588726       0.03287932 </v>
   <v>       0.33293048       0.76996278       0.09894420 </v>
   <v>       0.56330752       0.89626725       0.09890369 </v>
   <v>       0.65743467       0.88493338       0.03283352 </v>
   <v>       0.44834063       0.77248108       0.03289586 </v>
   <v>       0.65768298       0.77799547       0.23218191 </v>
   <v>       0.44465579       0.78693008       0.16607378 </v>
   <v>       0.55523352       0.88002157       0.23253378 </v>
   <v>       0.45356858       0.67593875       0.23228554 </v>
   <v>       0.54661658       0.99105965       0.16605374 </v>
   <v>       0.34220555       0.88880037       0.16598271 </v>
   <v>       0.54751434       0.89528943       0.36039931 </v>
   <v>       0.33344521       0.89781384       0.29863904 </v>
   <v>       0.43670992      -0.00721914       0.36475586 </v>
   <v>       0.33184283       0.77899158       0.36409164 </v>
   <v>       0.43547443       0.76997752       0.29866759 </v>
   <v>       0.56436863       0.66655479       0.29863904 </v>
   <v>       0.77028440       0.00026449       0.09892835 </v>
   <v>       0.89414924       0.00924387       0.03278200 </v>
   <v>       0.66640886       0.10335220       0.09907275 </v>
   <v>       0.89662149       0.22964637       0.09893228 </v>
   <v>       0.99081959       0.21830529       0.03283522 </v>
   <v>       0.78166738       0.10590143       0.03284879 </v>
   <v>       0.99070143       0.11211005       0.23120180 </v>
   <v>       0.77777410       0.12020847       0.16609736 </v>
   <v>       0.88827074       0.21328687       0.23234498 </v>
   <v>       0.78635607       0.00898292       0.23185376 </v>
   <v>       0.87989165       0.32458443       0.16602460 </v>
   <v>       0.67563909       0.22211299       0.16605218 </v>
   <v>       0.88557571       0.22325987       0.36179002 </v>
   <v>       0.66630513       0.23015120       0.29937171 </v>
   <v>       0.77272629       0.32443313       0.36514016 </v>
   <v>       0.67389996       0.11535845       0.36207977 </v>
   <v>       0.76834327       0.10221840       0.29815017 </v>
   <v>       0.89557620      -0.00170261       0.29696872 </v>
   <v>       0.77033166       0.33369028       0.09898478 </v>
   <v>       0.89412719       0.34253393       0.03295949 </v>
   <v>       0.66630972       0.43664138       0.09898478 </v>
   <v>       0.89664780       0.56305666       0.09907275 </v>
   <v>       0.99079609       0.55154713       0.03294206 </v>
   <v>       0.78164399       0.43912559       0.03293382 </v>
   <v>       0.99100042       0.44443545       0.23203708 </v>
   <v>       0.77788701       0.45352643       0.16605218 </v>
   <v>       0.88840443       0.54574234       0.23191428 </v>
   <v>       0.78641699       0.34202691       0.23234904 </v>
   <v>       0.87979153       0.65756596       0.16609736 </v>
   <v>       0.67541557       0.55530755       0.16602460 </v>
   <v>       0.88464155       0.55854183       0.36207977 </v>
   <v>       0.66657034       0.56322144       0.29938631 </v>
   <v>       0.77674013       0.66231617       0.36179002 </v>
   <v>       0.67556687       0.44829349       0.36514016 </v>
   <v>       0.76984880       0.43615393       0.29937171 </v>
   <v>       0.89665109       0.33342966       0.29938631 </v>
   <v>       0.77035363       0.66697512       0.09893228 </v>
   <v>       0.89409857       0.67576562       0.03284879 </v>
   <v>       0.66636842       0.76993319       0.09897655 </v>
   <v>       0.89651753       0.89639617       0.09899752 </v>
   <v>       0.99075613       0.88490503       0.03278200 </v>
   <v>       0.78169471       0.77251396       0.03283522 </v>
   <v>       0.99101708       0.77737281       0.23185376 </v>
   <v>       0.77750508       0.78651464       0.16608001 </v>
   <v>       0.88788995       0.87859105       0.23120180 </v>
   <v>       0.78671313       0.67498354       0.23234498 </v>
   <v>       0.88003218       0.99119674       0.16613510 </v>
   <v>       0.67549709       0.88879877       0.16592419 </v>
   <v>       0.88640351       0.89515546       0.36114655 </v>
   <v>       0.66796167       0.89737780       0.30009640 </v>
   <v>       0.77718177       0.99894804       0.36443496 </v>
   <v>       0.67798345       0.78305618       0.36469974 </v>
   <v>       0.76860293       0.77008316       0.29799518 </v>
   <v>       0.89778160       0.66612487       0.29815017 </v>
   <v>       0.00000000       0.00000000       0.43207624 </v>
   <v>      -0.03869090       0.12905697       0.45530795 </v>
   <v>      -0.04657727       0.19740851       0.42934715 </v>
   <v>       0.04934252       0.38417554       0.46372551 </v>
   <v>      -0.04649845       0.54638904       0.42486174 </v>
   <v>      -0.02017552       0.58777100       0.46108570 </v>
   <v>       0.07653329       0.76055964       0.45096772 </v>
   <v>      -0.03013967       0.87384059       0.43329839 </v>
   <v>       0.16774788       0.03869090       0.45530795 </v>
   <v>       0.12615941       0.09601974       0.43329839 </v>
   <v>       0.13351171       0.23960117       0.45071616 </v>
   <v>       0.11838528       0.35690326       0.47085031 </v>
   <v>       0.11140905       0.49347974       0.42619521 </v>
   <v>       0.11119327       0.55410901       0.45590110 </v>
   <v>       0.11052521       0.72639853       0.41768821 </v>
   <v>       0.10608946       0.86648829       0.45071616 </v>
   <v>       0.24398578       0.04657727       0.42934715 </v>
   <v>       0.31537841       0.20357590       0.48573003 </v>
   <v>       0.23944036       0.31597365       0.45096772 </v>
   <v>       0.27360147       0.38412668       0.41768821 </v>
   <v>       0.29515619       0.57622442       0.48272586 </v>
   <v>       0.27734945       0.70279271       0.44400668 </v>
   <v>       0.28106823       0.70484381       0.48272586 </v>
   <v>       0.23851798       0.88161472       0.47085031 </v>
   <v>       0.33483302      -0.04934252       0.46372551 </v>
   <v>       0.41626100       0.10520076       0.43603510 </v>
   <v>       0.31823074       0.21065713       0.44800646 </v>
   <v>       0.41222900       0.39205348       0.46108570 </v>
   <v>       0.44589099       0.55708426       0.45590110 </v>
   <v>       0.29720729       0.57455674       0.44400668 </v>
   <v>       0.42544326       0.72265055       0.44400668 </v>
   <v>       0.38207069       0.88859095       0.42619521 </v>
   <v>       0.59288748       0.04649845       0.42486174 </v>
   <v>       0.49226378       0.09765020       0.45229069 </v>
   <v>       0.46845200       0.27189308       0.44329077 </v>
   <v>       0.48733135       0.28535219       0.48126066 </v>
   <v>       0.45361096       0.40711252       0.42486174 </v>
   <v>       0.50652026       0.61792931       0.42619521 </v>
   <v>       0.42377558       0.71893177       0.48272586 </v>
   <v>       0.44291574       0.88880673       0.45590110 </v>
   <v>       0.60794652       0.02017552       0.46108570 </v>
   <v>       0.71464781       0.20197916       0.48126066 </v>
   <v>       0.61962054       0.27009494       0.44690626 </v>
   <v>       0.65047441       0.38037946       0.44690626 </v>
   <v>       0.60538642       0.50773622       0.45229069 </v>
   <v>       0.61582446       0.66516698       0.46372551 </v>
   <v>       0.64309674       0.76148202       0.47085031 </v>
   <v>       0.61587332       0.88947479       0.41768821 </v>
   <v>       0.68402635      -0.07653329       0.45096772 </v>
   <v>       0.78934287       0.10757360       0.44800646 </v>
   <v>       0.72810692       0.19655891       0.44329077 </v>
   <v>       0.72990506       0.34952559       0.44690626 </v>
   <v>       0.80344109       0.53154800       0.44329077 </v>
   <v>       0.68893976       0.58373900       0.43603510 </v>
   <v>       0.80259149       0.75601422       0.42934715 </v>
   <v>       0.76039883       0.89391054       0.45071616 </v>
   <v>       0.90398026       0.03013967       0.43329839 </v>
   <v>       0.79642410       0.11180252       0.48573003 </v>
   <v>       0.89479924       0.31106024       0.43603510 </v>
   <v>       0.90234980       0.39461358       0.45229069 </v>
   <v>       0.79802084       0.51266865       0.48126066 </v>
   <v>       0.89242640       0.68176926       0.44800646 </v>
   <v>       0.88819748       0.68462159       0.48573003 </v>
   <v>       0.87094303       0.83225212       0.45530795 </v>
  </varray>
 </structure>
</modeling>
