NiAl                                    
            1
    14.415084    0.000000    0.000000
    -7.207542   12.483828    0.000000
     0.000000    0.000000   32.516254
   Al   O 
   108   226
Direct configuration=     1
   0.00000000  0.00000000  0.05966082
   0.11111100  0.22222233  0.00756853
   0.11111100  0.22222233  0.12689017
   0.22222233  0.11111100  0.07479748
   0.22222233  0.11111100  0.19411912
   0.00000000  0.00000000  0.14202683
   0.00000000  0.00000000  0.26134848
   0.11111100  0.22222233  0.20925619
   0.11111100  0.22222233  0.32857783
   0.22222233  0.11111100  0.27648513
   0.22222233  0.11111100  0.39580678
   0.00000000  0.00000000  0.34371449
   0.00000000  0.33333333  0.05966082
   0.11111100  0.55555567  0.00756853
   0.11111100  0.55555567  0.12689017
   0.22222233  0.44444433  0.07479748
   0.22222233  0.44444433  0.19411912
   0.00000000  0.33333333  0.14202683
   0.00000000  0.33333333  0.26134848
   0.11111100  0.55555567  0.20925619
   0.11111100  0.55555567  0.32857783
   0.22222233  0.44444433  0.27648513
   0.22222233  0.44444433  0.39580678
   0.00000000  0.33333333  0.34371449
   0.00000000  0.66666667  0.05966082
   0.11111100  0.88888900  0.00756853
   0.11111100  0.88888900  0.12689017
   0.22222233  0.77777767  0.07479748
   0.22222233  0.77777767  0.19411912
   0.00000000  0.66666667  0.14202683
   0.00000000  0.66666667  0.26134848
   0.11111100  0.88888900  0.20925619
   0.11111100  0.88888900  0.32857783
   0.22222233  0.77777767  0.27648513
   0.22222233  0.77777767  0.39580678
   0.00000000  0.66666667  0.34371449
   0.33333333  0.00000000  0.05966082
   0.44444433  0.22222233  0.00756853
   0.44444433  0.22222233  0.12689017
   0.55555567  0.11111100  0.07479748
   0.55555567  0.11111100  0.19411912
   0.33333333  0.00000000  0.14202683
   0.33333333  0.00000000  0.26134848
   0.44444433  0.22222233  0.20925619
   0.44444433  0.22222233  0.32857783
   0.55555567  0.11111100  0.27648513
   0.55555567  0.11111100  0.39580678
   0.33333333  0.00000000  0.34371449
   0.33333333  0.33333333  0.05966082
   0.44444433  0.55555567  0.00756853
   0.44444433  0.55555567  0.12689017
   0.55555567  0.44444433  0.07479748
   0.55555567  0.44444433  0.19411912
   0.33333333  0.33333333  0.14202683
   0.33333333  0.33333333  0.26134848
   0.44444433  0.55555567  0.20925619
   0.44444433  0.55555567  0.32857783
   0.55555567  0.44444433  0.27648513
   0.55555567  0.44444433  0.39580678
   0.33333333  0.33333333  0.34371449
   0.33333333  0.66666667  0.05966082
   0.44444433  0.88888900  0.00756853
   0.44444433  0.88888900  0.12689017
   0.55555567  0.77777767  0.07479748
   0.55555567  0.77777767  0.19411912
   0.33333333  0.66666667  0.14202683
   0.33333333  0.66666667  0.26134848
   0.44444433  0.88888900  0.20925619
   0.44444433  0.88888900  0.32857783
   0.55555567  0.77777767  0.27648513
   0.55555567  0.77777767  0.39580678
   0.33333333  0.66666667  0.34371449
   0.66666667  0.00000000  0.05966082
   0.77777767  0.22222233  0.00756853
   0.77777767  0.22222233  0.12689017
   0.88888900  0.11111100  0.07479748
   0.88888900  0.11111100  0.19411912
   0.66666667  0.00000000  0.14202683
   0.66666667  0.00000000  0.26134848
   0.77777767  0.22222233  0.20925619
   0.77777767  0.22222233  0.32857783
   0.88888900  0.11111100  0.27648513
   0.88888900  0.11111100  0.39580678
   0.66666667  0.00000000  0.34371449
   0.66666667  0.33333333  0.05966082
   0.77777767  0.55555567  0.00756853
   0.77777767  0.55555567  0.12689017
   0.88888900  0.44444433  0.07479748
   0.88888900  0.44444433  0.19411912
   0.66666667  0.33333333  0.14202683
   0.66666667  0.33333333  0.26134848
   0.77777767  0.55555567  0.20925619
   0.77777767  0.55555567  0.32857783
   0.88888900  0.44444433  0.27648513
   0.88888900  0.44444433  0.39580678
   0.66666667  0.33333333  0.34371449
   0.66666667  0.66666667  0.05966082
   0.77777767  0.88888900  0.00756853
   0.77777767  0.88888900  0.12689017
   0.88888900  0.77777767  0.07479748
   0.88888900  0.77777767  0.19411912
   0.66666667  0.66666667  0.14202683
   0.66666667  0.66666667  0.26134848
   0.77777767  0.88888900  0.20925619
   0.77777767  0.88888900  0.32857783
   0.88888900  0.77777767  0.27648513
   0.88888900  0.77777767  0.39580678
   0.66666667  0.66666667  0.34371449
   0.10204867  0.00000000  0.10084383
   0.22222233  0.00906233  0.03361447
   0.00000000  0.10204867  0.10084383
   0.23128467  0.23128467  0.10084383
   0.32427100  0.21315967  0.03361447
   0.12017367  0.11111100  0.03361447
   0.32427100  0.11111100  0.23530213
   0.11111100  0.12017367  0.16807318
   0.22222233  0.21315967  0.23530213
   0.12017367  0.00906233  0.23530213
   0.21315967  0.32427100  0.16807318
   0.00906233  0.22222233  0.16807318
   0.21315967  0.22222233  0.36976083
   0.00000000  0.23128467  0.30253148
   0.11111100  0.32427100  0.36976083
   0.00906233  0.12017367  0.36976083
   0.10204867  0.10204867  0.30253148
   0.23128467  0.00000000  0.30253148
   0.10204867  0.33333333  0.10084383
   0.22222233  0.34239567  0.03361447
   0.00000000  0.43538200  0.10084383
   0.23128467  0.56461800  0.10084383
   0.32427100  0.54649300  0.03361447
   0.12017367  0.44444433  0.03361447
   0.32427100  0.44444433  0.23530213
   0.11111100  0.45350700  0.16807318
   0.22222233  0.54649300  0.23530213
   0.12017367  0.34239567  0.23530213
   0.21315967  0.65760433  0.16807318
   0.00906233  0.55555567  0.16807318
   0.21315967  0.55555567  0.36976083
   0.00000000  0.56461800  0.30253148
   0.11111100  0.65760433  0.36976083
   0.00906233  0.45350700  0.36976083
   0.10204867  0.43538200  0.30253148
   0.23128467  0.33333333  0.30253148
   0.10204867  0.66666667  0.10084383
   0.22222233  0.67572900  0.03361447
   0.00000000  0.76871533  0.10084383
   0.23128467  0.89795133  0.10084383
   0.32427100  0.87982633  0.03361447
   0.12017367  0.77777767  0.03361447
   0.32427100  0.77777767  0.23530213
   0.11111100  0.78684033  0.16807318
   0.22222233  0.87982633  0.23530213
   0.12017367  0.67572900  0.23530213
   0.21315967  0.99093767  0.16807318
   0.00906233  0.88888900  0.16807318
   0.21315967  0.88888900  0.36976083
   0.00000000  0.89795133  0.30253148
   0.11111100  0.99093767  0.36976083
   0.00906233  0.78684033  0.36976083
   0.10204867  0.76871533  0.30253148
   0.23128467  0.66666667  0.30253148
   0.43538200  0.00000000  0.10084383
   0.55555567  0.00906233  0.03361447
   0.33333333  0.10204867  0.10084383
   0.56461800  0.23128467  0.10084383
   0.65760433  0.21315967  0.03361447
   0.45350700  0.11111100  0.03361447
   0.65760433  0.11111100  0.23530213
   0.44444433  0.12017367  0.16807318
   0.55555567  0.21315967  0.23530213
   0.45350700  0.00906233  0.23530213
   0.54649300  0.32427100  0.16807318
   0.34239567  0.22222233  0.16807318
   0.54649300  0.22222233  0.36976083
   0.33333333  0.23128467  0.30253148
   0.44444433  0.32427100  0.36976083
   0.34239567  0.12017367  0.36976083
   0.43538200  0.10204867  0.30253148
   0.56461800  0.00000000  0.30253148
   0.43538200  0.33333333  0.10084383
   0.55555567  0.34239567  0.03361447
   0.33333333  0.43538200  0.10084383
   0.56461800  0.56461800  0.10084383
   0.65760433  0.54649300  0.03361447
   0.45350700  0.44444433  0.03361447
   0.65760433  0.44444433  0.23530213
   0.44444433  0.45350700  0.16807318
   0.55555567  0.54649300  0.23530213
   0.45350700  0.34239567  0.23530213
   0.54649300  0.65760433  0.16807318
   0.34239567  0.55555567  0.16807318
   0.54649300  0.55555567  0.36976083
   0.33333333  0.56461800  0.30253148
   0.44444433  0.65760433  0.36976083
   0.34239567  0.45350700  0.36976083
   0.43538200  0.43538200  0.30253148
   0.56461800  0.33333333  0.30253148
   0.43538200  0.66666667  0.10084383
   0.55555567  0.67572900  0.03361447
   0.33333333  0.76871533  0.10084383
   0.56461800  0.89795133  0.10084383
   0.65760433  0.87982633  0.03361447
   0.45350700  0.77777767  0.03361447
   0.65760433  0.77777767  0.23530213
   0.44444433  0.78684033  0.16807318
   0.55555567  0.87982633  0.23530213
   0.45350700  0.67572900  0.23530213
   0.54649300  0.99093767  0.16807318
   0.34239567  0.88888900  0.16807318
   0.54649300  0.88888900  0.36976083
   0.33333333  0.89795133  0.30253148
   0.44444433  0.99093767  0.36976083
   0.34239567  0.78684033  0.36976083
   0.43538200  0.76871533  0.30253148
   0.56461800  0.66666667  0.30253148
   0.76871533  0.00000000  0.10084383
   0.88888900  0.00906233  0.03361447
   0.66666667  0.10204867  0.10084383
   0.89795133  0.23128467  0.10084383
   0.99093767  0.21315967  0.03361447
   0.78684033  0.11111100  0.03361447
   0.99093767  0.11111100  0.23530213
   0.77777767  0.12017367  0.16807318
   0.88888900  0.21315967  0.23530213
   0.78684033  0.00906233  0.23530213
   0.87982633  0.32427100  0.16807318
   0.67572900  0.22222233  0.16807318
   0.87982633  0.22222233  0.36976083
   0.66666667  0.23128467  0.30253148
   0.77777767  0.32427100  0.36976083
   0.67572900  0.12017367  0.36976083
   0.76871533  0.10204867  0.30253148
   0.89795133  0.00000000  0.30253148
   0.76871533  0.33333333  0.10084383
   0.88888900  0.34239567  0.03361447
   0.66666667  0.43538200  0.10084383
   0.89795133  0.56461800  0.10084383
   0.99093767  0.54649300  0.03361447
   0.78684033  0.44444433  0.03361447
   0.99093767  0.44444433  0.23530213
   0.77777767  0.45350700  0.16807318
   0.88888900  0.54649300  0.23530213
   0.78684033  0.34239567  0.23530213
   0.87982633  0.65760433  0.16807318
   0.67572900  0.55555567  0.16807318
   0.87982633  0.55555567  0.36976083
   0.66666667  0.56461800  0.30253148
   0.77777767  0.65760433  0.36976083
   0.67572900  0.45350700  0.36976083
   0.76871533  0.43538200  0.30253148
   0.89795133  0.33333333  0.30253148
   0.76871533  0.66666667  0.10084383
   0.88888900  0.67572900  0.03361447
   0.66666667  0.76871533  0.10084383
   0.89795133  0.89795133  0.10084383
   0.99093767  0.87982633  0.03361447
   0.78684033  0.77777767  0.03361447
   0.99093767  0.77777767  0.23530213
   0.77777767  0.78684033  0.16807318
   0.88888900  0.87982633  0.23530213
   0.78684033  0.67572900  0.23530213
   0.87982633  0.99093767  0.16807318
   0.67572900  0.88888900  0.16807318
   0.87982633  0.88888900  0.36976083
   0.66666667  0.89795133  0.30253148
   0.77777767  0.99093767  0.36976083
   0.67572900  0.78684033  0.36976083
   0.76871533  0.76871533  0.30253148
   0.89795133  0.66666667  0.30253148
   0.00000000  0.00000000  0.43886217
   0.00000000  0.12500000  0.43886217
   0.00000000  0.25000000  0.43886217
   0.00000000  0.37500000  0.43886217
   0.00000000  0.50000000  0.43886217
   0.00000000  0.62500000  0.43886217
   0.00000000  0.75000000  0.43886217
   0.00000000  0.87500000  0.43886217
   0.12500000  0.00000000  0.43886217
   0.12500000  0.12500000  0.43886217
   0.12500000  0.25000000  0.43886217
   0.12500000  0.37500000  0.43886217
   0.12500000  0.50000000  0.43886217
   0.12500000  0.62500000  0.43886217
   0.12500000  0.75000000  0.43886217
   0.12500000  0.87500000  0.43886217
   0.25000000  0.00000000  0.43886217
   0.25000000  0.12500000  0.43886217
   0.25000000  0.25000000  0.43886217
   0.25000000  0.37500000  0.43886217
   0.25000000  0.50000000  0.43886217
   0.25000000  0.62500000  0.43886217
   0.25000000  0.75000000  0.43886217
   0.25000000  0.87500000  0.43886217
   0.37500000  0.00000000  0.43886217
   0.37500000  0.12500000  0.43886217
   0.37500000  0.25000000  0.43886217
   0.37500000  0.37500000  0.43886217
   0.37500000  0.50000000  0.43886217
   0.37500000  0.62500000  0.43886217
   0.37500000  0.75000000  0.43886217
   0.37500000  0.87500000  0.43886217
   0.50000000  0.00000000  0.43886217
   0.50000000  0.12500000  0.43886217
   0.50000000  0.25000000  0.43886217
   0.50000000  0.37500000  0.43886217
   0.50000000  0.50000000  0.43886217
   0.50000000  0.62500000  0.43886217
   0.50000000  0.75000000  0.43886217
   0.50000000  0.87500000  0.43886217
   0.62500000  0.00000000  0.43886217
   0.62500000  0.12500000  0.43886217
   0.62500000  0.25000000  0.43886217
   0.62500000  0.37500000  0.43886217
   0.62500000  0.50000000  0.43886217
   0.62500000  0.62500000  0.43886217
   0.62500000  0.75000000  0.43886217
   0.62500000  0.87500000  0.43886217
   0.75000000  0.00000000  0.43886217
   0.75000000  0.12500000  0.43886217
   0.75000000  0.25000000  0.43886217
   0.75000000  0.37500000  0.43886217
   0.75000000  0.50000000  0.43886217
   0.75000000  0.62500000  0.43886217
   0.75000000  0.75000000  0.43886217
   0.75000000  0.87500000  0.43886217
   0.87500000  0.00000000  0.43886217
   0.87500000  0.12500000  0.43886217
   0.87500000  0.25000000  0.43886217
   0.87500000  0.37500000  0.43886217
   0.87500000  0.50000000  0.43886217
   0.87500000  0.62500000  0.43886217
   0.87500000  0.75000000  0.43886217
   0.87500000  0.87500000  0.43886217
Direct configuration=     2
  -0.00000000  0.00000000  0.05921149
   0.11110813  0.22222139  0.01155661
   0.11111488  0.22223033  0.12684127
   0.22222609  0.11111354  0.07368689
   0.22226841  0.11113454  0.19414149
  -0.00000000  0.00000000  0.14203492
  -0.00000000  0.00000000  0.26137494
   0.11114020  0.22226817  0.20929977
   0.11102553  0.22237577  0.32983890
   0.22235907  0.11117011  0.27658871
   0.21518596  0.10766486  0.38398624
  -0.00000000  0.00000000  0.34418974
  -0.00000202  0.33332946  0.05921850
   0.11111060  0.55555326  0.01155653
   0.11111290  0.55555702  0.12685317
   0.22222226  0.44444055  0.07369034
   0.22223869  0.44447304  0.19415835
  -0.00000240  0.33334639  0.14204925
   0.00000272  0.33339939  0.26142364
   0.11113202  0.55556159  0.20932485
   0.11108424  0.55549822  0.32971119
   0.22223911  0.44454297  0.27661120
   0.21927258  0.43909243  0.38897812
   0.00030558  0.33356986  0.34401880
  -0.00000127  0.66666849  0.05921809
   0.11111292  0.88889187  0.01155661
   0.11111512  0.88888512  0.12684127
   0.22221863  0.77777774  0.07369034
   0.22223469  0.77776131  0.19415835
  -0.00000099  0.66665279  0.14204993
  -0.00002254  0.66658278  0.26142319
   0.11112764  0.88885980  0.20929977
   0.11134991  0.88897447  0.32983890
   0.22230418  0.77776089  0.27661120
   0.21982018  0.78072742  0.38897812
  -0.00033726  0.66646922  0.34401408
   0.33333148  0.00000202  0.05921850
   0.44444580  0.22222207  0.01155576
   0.44445424  0.22222456  0.12684814
   0.55555144  0.11110572  0.07369028
   0.55555056  0.11110884  0.19415832
   0.33334879  0.00000240  0.14204925
   0.33339667 -0.00000272  0.26142364
   0.44446225  0.22222799  0.20931830
   0.44454473  0.22240801  0.32971985
   0.55556395  0.11110718  0.27662011
   0.55512168  0.10997427  0.39003380
   0.33326427 -0.00030558  0.34401880
   0.33333151  0.33333024  0.05921809
   0.44444674  0.55555767  0.01155653
   0.44444298  0.55555621  0.12685317
   0.55555461  0.44444856  0.07369028
   0.55555861  0.44444944  0.19415832
   0.33334721  0.33334622  0.14204993
   0.33341722  0.33339468  0.26142319
   0.44443841  0.55557076  0.20932485
   0.44450178  0.55558636  0.32971119
   0.55554356  0.44443605  0.27662011
   0.55485292  0.44487832  0.39003380
   0.33353078  0.33319353  0.34401408
   0.33333333  0.66666667  0.05922249
   0.44444233  0.88888940  0.01155653
   0.44444379  0.88888710  0.12685317
   0.55555945  0.77778137  0.07369034
   0.55552696  0.77776531  0.19415835
   0.33333333  0.66666667  0.14205439
   0.33333333  0.66666667  0.26144037
   0.44442924  0.88886798  0.20932485
   0.44441364  0.88891576  0.32971119
   0.55545703  0.77769582  0.27661120
   0.56090757  0.78017982  0.38897812
   0.33333333  0.66666667  0.34393538
   0.66666976  0.00000127  0.05921809
   0.77777793  0.22222406  0.01155576
   0.77777544  0.22223001  0.12684814
   0.88888646  0.11111222  0.07368689
   0.88886546  0.11113354  0.19414149
   0.66665378  0.00000099  0.14204993
   0.66660532  0.00002254  0.26142319
   0.77777201  0.22223460  0.20931830
   0.77759199  0.22213706  0.32971985
   0.88882989  0.11118863  0.27658871
   0.89233514  0.10752078  0.38398624
   0.66680647  0.00033726  0.34401408
   0.66666667  0.33333333  0.05922123
   0.77777594  0.55555420  0.01155576
   0.77776999  0.55554576  0.12684814
   0.88889428  0.44444539  0.07369028
   0.88889116  0.44444139  0.19415832
   0.66666667  0.33333333  0.14205193
   0.66666667  0.33333333  0.26143696
   0.77776540  0.55553775  0.20931830
   0.77786294  0.55545527  0.32971985
   0.88889282  0.44445644  0.27662011
   0.89002573  0.44514708  0.39003380
   0.66666667  0.33333333  0.34395384
   0.66667054  0.66666852  0.05921850
   0.77777861  0.88888708  0.01155661
   0.77776967  0.88888488  0.12684127
   0.88888778  0.77777391  0.07368689
   0.88886646  0.77773159  0.19414149
   0.66665361  0.66665121  0.14204925
   0.66660061  0.66660333  0.26142364
   0.77773183  0.88887236  0.20929977
   0.77762423  0.88865009  0.32983890
   0.88881137  0.77764093  0.27658871
   0.89247922  0.78481404  0.38398624
   0.66643014  0.66673573  0.34401880
   0.10221147  0.00022686  0.10089899
   0.22132733  0.00609860  0.03278890
  -0.00022686  0.10198461  0.10089899
   0.23134657  0.23111969  0.10089817
   0.32723490  0.21522913  0.03278923
   0.11810947  0.11200808  0.03279551
   0.32425741  0.11112324  0.23526950
   0.11108444  0.12015293  0.16807057
   0.22215309  0.21312963  0.23528338
   0.12013607  0.00903630  0.23530720
   0.21315543  0.32425043  0.16806644
   0.00907506  0.22222211  0.16807147
   0.21478949  0.22186771  0.36878177
  -0.00025001  0.23107139  0.30235995
   0.11146363  0.32562768  0.36864157
   0.00709142  0.11889438  0.36853387
   0.10218021  0.10204252  0.30238326
   0.23132140  0.00025001  0.30235995
   0.10220883  0.33355850  0.10090206
   0.22132610  0.33943327  0.03279065
  -0.00022837  0.43531573  0.10089852
   0.23135499  0.56445346  0.10089652
   0.32723600  0.54856025  0.03278513
   0.11810427  0.44534709  0.03278861
   0.32427274  0.44444987  0.23526757
   0.11108628  0.45349063  0.16806247
   0.22217751  0.54646671  0.23525983
   0.12015871  0.34232343  0.23527966
   0.21316033  0.65759173  0.16806134
   0.00906763  0.55556826  0.16806267
   0.21448810  0.55533783  0.36888332
  -0.00010739  0.56459329  0.30234943
   0.11182971  0.65907685  0.36891975
   0.00723368  0.45213755  0.36872506
   0.10218457  0.43535868  0.30233384
   0.23131701  0.33345600  0.30237524
   0.10221469  0.66690540  0.10089922
   0.22132459  0.67276400  0.03278513
  -0.00022688  0.76865343  0.10089817
   0.23134967  0.89779117  0.10090206
   0.32724315  0.88189573  0.03278861
   0.11810750  0.77867390  0.03279065
   0.32428953  0.77782249  0.23525983
   0.11109467  0.78684457  0.16806644
   0.22216505  0.87984129  0.23527966
   0.12017746  0.67572726  0.23526757
   0.21314671  0.99092494  0.16807147
   0.00906816  0.88891556  0.16807057
   0.21416371  0.88853637  0.36864157
  -0.00013769  0.89781979  0.30238326
   0.11180262  0.99290858  0.36853387
   0.00707789  0.78521051  0.36878177
   0.10213899  0.76868299  0.30237524
   0.23130015  0.66681344  0.30235502
   0.43554410  0.00022837  0.10089852
   0.55465411  0.00609643  0.03278821
   0.33309902  0.10197867  0.10090117
   0.56468314  0.23112387  0.10089826
   0.66056680  0.21522380  0.03278965
   0.45144247  0.11200239  0.03278914
   0.65763303  0.11113235  0.23527083
   0.44442537  0.12016050  0.16806168
   0.55551299  0.21313420  0.23526607
   0.45352376  0.00904984  0.23526702
   0.54649317  0.32426331  0.16806147
   0.34238789  0.22223276  0.16806679
   0.54758540  0.22185887  0.36889222
   0.33312763  0.23104729  0.30234868
   0.44457209  0.32572777  0.36867388
   0.34089157  0.11894295  0.36893520
   0.43542418  0.10205074  0.30236593
   0.56470068  0.00010739  0.30234943
   0.43553669  0.33355538  0.10090036
   0.55465734  0.33943320  0.03278965
   0.33309460  0.43530929  0.10089922
   0.56468427  0.56445590  0.10089852
   0.66056025  0.54855753  0.03278914
   0.45144266  0.44534589  0.03278821
   0.65762155  0.44448701  0.23526607
   0.44443174  0.45349970  0.16806267
   0.55552641  0.54647624  0.23526702
   0.45349966  0.34236697  0.23527083
   0.54650937  0.65759598  0.16806247
   0.34240827  0.55556893  0.16806134
   0.54786245  0.55509646  0.36872506
   0.33318656  0.56448671  0.30235502
   0.44466217  0.65915061  0.36888332
   0.34092315  0.45275320  0.36891975
   0.43540671  0.43529932  0.30234943
   0.56465898  0.33348026  0.30234917
   0.43554654  0.66690153  0.10089652
   0.55465291  0.67275685  0.03278861
   0.33309847  0.76864501  0.10089652
   0.56469071  0.89778531  0.10089922
   0.66056673  0.88189250  0.03279065
   0.45143975  0.77867541  0.03278513
   0.65767657  0.77783495  0.23527966
   0.44443107  0.78683967  0.16806134
   0.55555013  0.87982254  0.23526757
   0.45353329  0.67571047  0.23525983
   0.54650030  0.99093237  0.16806267
   0.34240402  0.88891372  0.16806247
   0.54724680  0.88817029  0.36891975
   0.33317411  0.89781543  0.30233384
   0.44490354  0.99276632  0.36872506
   0.34084939  0.78551190  0.36888332
   0.43551329  0.76869985  0.30235502
   0.56464132  0.66682589  0.30233384
   0.76888031  0.00022688  0.10089817
   0.88799192  0.00610105  0.03279551
   0.66644462  0.10198132  0.10090036
   0.89802133  0.23112035  0.10090117
   0.99390140  0.21522839  0.03278890
   0.78477087  0.11200544  0.03278923
   0.99096370  0.11109944  0.23530720
   0.77776724  0.12015547  0.16806679
   0.88887676  0.21313383  0.23526950
   0.78687037  0.00902313  0.23528338
   0.87983950  0.32426521  0.16806168
   0.67573669  0.22223020  0.16806147
   0.88105705  0.22194895  0.36893520
   0.66651974  0.23117872  0.30234917
   0.77814113  0.32572686  0.36889222
   0.67427223  0.11884465  0.36867388
   0.76895271  0.10208034  0.30234868
   0.89795748  0.00013769  0.30238326
   0.76887613  0.33355927  0.10089826
   0.88799761  0.33943975  0.03278914
   0.66644073  0.43531686  0.10089826
   0.89801868  0.56446331  0.10090036
   0.99390357  0.54855734  0.03278821
   0.78477620  0.44534266  0.03278965
   0.99095016  0.44447359  0.23526702
   0.77776980  0.45350683  0.16806147
   0.88886765  0.54650034  0.23527083
   0.78686580  0.34237845  0.23526607
   0.87984453  0.65761211  0.16806679
   0.67573479  0.55557463  0.16806168
   0.88115535  0.55542791  0.36867388
   0.66662657  0.56457582  0.30236593
   0.77805105  0.65910843  0.36893520
   0.67427314  0.45241460  0.36889222
   0.76882128  0.43534102  0.30234917
   0.89794926  0.33337343  0.30236593
   0.76887965  0.66690098  0.10090117
   0.88799456  0.67276510  0.03278923
   0.66644150  0.76865033  0.10090206
   0.89801539  0.89778853  0.10089899
   0.99389895  0.88189053  0.03279551
   0.78477161  0.77867267  0.03278890
   0.99097687  0.77784691  0.23528338
   0.77777789  0.78685329  0.16807147
   0.88890056  0.87986393  0.23530720
   0.78686617  0.67574259  0.23526950
   0.87984707  0.99093184  0.16807057
   0.67574957  0.88890533  0.16806644
   0.88110562  0.88819738  0.36853387
   0.66654400  0.89786101  0.30237524
   0.77813229  0.99292211  0.36878177
   0.67437232  0.78583629  0.36864157
   0.76892861  0.76867860  0.30235995
   0.89791966  0.66687237  0.30234868
  -0.00000000  0.00000000  0.43922415
   0.00245017  0.12560638  0.43976595
   0.00111273  0.25121484  0.43913333
   0.00045774  0.37441877  0.43928100
   0.00219438  0.50168842  0.43967460
   0.00033314  0.62564723  0.43920538
   0.00138938  0.74925366  0.43953023
   0.00161571  0.87663298  0.43921252
   0.12315621 -0.00245017  0.43976595
   0.12336702  0.12498273  0.43921252
   0.12479285  0.24939467  0.43931848
   0.12246135  0.37380255  0.44005713
   0.12373331  0.50015433  0.43926023
   0.12409508  0.62274462  0.43937564
   0.12250871  0.74973847  0.43957537
   0.12460182  0.87520715  0.43931848
   0.25010211 -0.00111273  0.43913333
   0.25722823  0.12877510  0.44912471
   0.25074634  0.25213572  0.43953023
   0.25026153  0.37277024  0.43957537
   0.25355599  0.50703187  0.44385445
   0.25006558  0.62547833  0.43918063
   0.25347588  0.74644401  0.44385445
   0.25134120  0.87753865  0.44005713
   0.37396104 -0.00045774  0.43928100
   0.37652240  0.12531966  0.43927462
   0.37543993  0.25053545  0.43912114
   0.37435277  0.37468591  0.43920538
   0.37725538  0.50135045  0.43937564
   0.37452167  0.62458724  0.43918063
   0.37541276  0.74993442  0.43918063
   0.37642101  0.87626669  0.43926023
   0.49949404 -0.00219438  0.43967460
   0.49605023  0.12564826  0.44131201
   0.49971304  0.24990286  0.43918304
   0.49676058  0.37075409  0.44165887
   0.49831158  0.50050596  0.43967460
   0.49984567  0.62357899  0.43926023
   0.49296813  0.74652412  0.44385445
   0.49864955  0.87590492  0.43937564
   0.62531409 -0.00033314  0.43920538
   0.62924591  0.12600649  0.44165887
   0.62637231  0.25179616  0.43942011
   0.62542384  0.37362769  0.43942011
   0.62959803  0.50394977  0.44131201
   0.62558123  0.62603896  0.43928100
   0.62619745  0.74865880  0.44005713
   0.62722976  0.87749129  0.43957537
   0.74786428 -0.00138938  0.43953023
   0.74946455  0.12490448  0.43912114
   0.75009714  0.24981017  0.43918304
   0.74820384  0.37457616  0.43942011
   0.75018983  0.50028696  0.43918304
   0.74879727  0.62347760  0.43927462
   0.74878516  0.74989789  0.43913333
   0.75060533  0.87539818  0.43931848
   0.87501727 -0.00161571  0.43921252
   0.87122490  0.12845313  0.44912471
   0.87468034  0.25120273  0.43927462
   0.87435174  0.37040197  0.44131201
   0.87399351  0.50323942  0.44165887
   0.87509552  0.62456007  0.43912114
   0.87154687  0.74277177  0.44912471
   0.87439362  0.87684379  0.43976595
Direct configuration=     3
  -0.00000000  0.00000000  0.05913240
   0.11110762  0.22222122  0.01225860
   0.11111556  0.22223173  0.12683266
   0.22222675  0.11111398  0.07349140
   0.22227652  0.11113868  0.19414543
  -0.00000000  0.00000000  0.14203634
  -0.00000000  0.00000000  0.26137960
   0.11114534  0.22227624  0.20930744
   0.11101048  0.22240278  0.33006088
   0.22238314  0.11118051  0.27660695
   0.21394740  0.10705826  0.38190555
  -0.00000000  0.00000000  0.34427339
  -0.00000237  0.33332878  0.05914064
   0.11111052  0.55555284  0.01225851
   0.11111324  0.55555726  0.12684666
   0.22222225  0.44443989  0.07349546
   0.22224156  0.44447809  0.19416525
  -0.00000283  0.33334868  0.14205319
   0.00000320  0.33341102  0.26143688
   0.11113572  0.55556264  0.20933693
   0.11107953  0.55548811  0.32991069
   0.22224207  0.44456033  0.27663339
   0.21875336  0.43815037  0.38777612
   0.00035937  0.33361149  0.34407237
  -0.00000150  0.66666881  0.05914016
   0.11111326  0.88889238  0.01225860
   0.11111584  0.88888444  0.12683266
   0.22221797  0.77777775  0.07349546
   0.22223686  0.77775844  0.19416525
  -0.00000116  0.66665035  0.14205399
  -0.00002651  0.66656801  0.26143634
   0.11113057  0.88885466  0.20930744
   0.11139196  0.88898952  0.33006088
   0.22231859  0.77775793  0.27663339
   0.21939735  0.78124664  0.38777612
  -0.00039662  0.66643446  0.34406681
   0.33333116  0.00000237  0.05914064
   0.44444605  0.22222202  0.01225761
   0.44445598  0.22222496  0.12684074
   0.55555069  0.11110478  0.07349539
   0.55554967  0.11110846  0.19416522
   0.33335151  0.00000283  0.14205319
   0.33340782 -0.00000320  0.26143688
   0.44446541  0.22222898  0.20932923
   0.44456241  0.22244069  0.32992087
   0.55556541  0.11110650  0.27664387
   0.55504528  0.10977418  0.38901762
   0.33325212 -0.00035937  0.34407237
   0.33333119  0.33332970  0.05914016
   0.44444716  0.55555802  0.01225851
   0.44444274  0.55555631  0.12684666
   0.55555442  0.44444931  0.07349539
   0.55555913  0.44445033  0.19416522
   0.33334965  0.33334849  0.14205399
   0.33343199  0.33340548  0.26143634
   0.44443736  0.55557342  0.20933693
   0.44451189  0.55559176  0.32991069
   0.55554142  0.44443459  0.27664387
   0.55472923  0.44495472  0.38901762
   0.33356554  0.33316892  0.34406681
   0.33333333  0.66666667  0.05914533
   0.44444198  0.88888948  0.01225851
   0.44444369  0.88888676  0.12684666
   0.55556011  0.77778203  0.07349546
   0.55552191  0.77776314  0.19416525
   0.33333333  0.66666667  0.14205924
   0.33333333  0.66666667  0.26145654
   0.44442658  0.88886428  0.20933693
   0.44440824  0.88892047  0.32991069
   0.55543967  0.77768141  0.27663339
   0.56184963  0.78060265  0.38777612
   0.33333333  0.66666667  0.34397427
   0.66667030  0.00000150  0.05914016
   0.77777798  0.22222437  0.01225761
   0.77777504  0.22223136  0.12684074
   0.88888602  0.11111244  0.07349140
   0.88886132  0.11113751  0.19414543
   0.66665151  0.00000116  0.14205399
   0.66659452  0.00002651  0.26143634
   0.77777102  0.22223676  0.20932923
   0.77755931  0.22212205  0.32992087
   0.88881949  0.11120230  0.27660695
   0.89294174  0.10688881  0.38190555
   0.66683108  0.00039662  0.34406681
   0.66666667  0.33333333  0.05914385
   0.77777563  0.55555395  0.01225761
   0.77776864  0.55554402  0.12684074
   0.88889522  0.44444558  0.07349539
   0.88889154  0.44444087  0.19416522
   0.66666667  0.33333333  0.14205634
   0.66666667  0.33333333  0.26145254
   0.77776324  0.55553459  0.20932923
   0.77787795  0.55543759  0.32992087
   0.88889350  0.44445858  0.27664387
   0.89022582  0.44527077  0.38901762
   0.66666667  0.33333333  0.34399598
   0.66667122  0.66666884  0.05914064
   0.77777878  0.88888674  0.01225860
   0.77776827  0.88888416  0.12683266
   0.88888756  0.77777325  0.07349140
   0.88886249  0.77772348  0.19414543
   0.66665132  0.66664849  0.14205319
   0.66658898  0.66659218  0.26143688
   0.77772376  0.88886943  0.20930744
   0.77759722  0.88860804  0.33006088
   0.88879770  0.77761686  0.27660695
   0.89311119  0.78605260  0.38190555
   0.66638851  0.66674788  0.34407237
   0.10224013  0.00026679  0.10090870
   0.22116979  0.00557692  0.03264358
  -0.00026679  0.10197334  0.10090870
   0.23135747  0.23109066  0.10090773
   0.32775661  0.21559340  0.03264397
   0.11774612  0.11216599  0.03265135