 257 257   0   0
  0.1653678E+02  0.1619800E-08  0.1619800E-08  0.1619800E-08  0.2000000E-15
   1.0000000000000000E-004
  CAR 
 NiAl                                    
     10.47197785    -15.57426137  301      6.81660113      1.00000000
    -15.574  0.0000E+00  0.0000E+00
    -15.487  0.0000E+00  0.0000E+00
    -15.401  0.0000E+00  0.0000E+00
    -15.314  0.0000E+00  0.0000E+00
    -15.227  0.0000E+00  0.0000E+00
    -15.140  0.0000E+00  0.0000E+00
    -15.053  0.0000E+00  0.0000E+00
    -14.967  0.0000E+00  0.0000E+00
    -14.880  0.0000E+00  0.0000E+00
    -14.793  0.0000E+00  0.0000E+00
    -14.706  0.0000E+00  0.0000E+00
    -14.619  0.2614E-10  0.2270E-11
    -14.532  0.1634E-04  0.1419E-05
    -14.446  0.3349E-01  0.2909E-02
    -14.359  0.4341E+00  0.4060E-01
    -14.272  0.1080E+00  0.4998E-01
    -14.185  0.2403E-03  0.5000E-01
    -14.098  0.1948E-08  0.5000E-01
    -14.011  0.0000E+00  0.5000E-01
    -13.925  0.0000E+00  0.5000E-01
    -13.838  0.0000E+00  0.5000E-01
    -13.751  0.0000E+00  0.5000E-01
    -13.664  0.0000E+00  0.5000E-01
    -13.577  0.0000E+00  0.5000E-01
    -13.491  0.0000E+00  0.5000E-01
    -13.404  0.0000E+00  0.5000E-01
    -13.317  0.0000E+00  0.5000E-01
    -13.230  0.0000E+00  0.5000E-01
    -13.143  0.0000E+00  0.5000E-01
    -13.056  0.0000E+00  0.5000E-01
    -12.970  0.0000E+00  0.5000E-01
    -12.883  0.0000E+00  0.5000E-01
    -12.796  0.0000E+00  0.5000E-01
    -12.709  0.0000E+00  0.5000E-01
    -12.622  0.0000E+00  0.5000E-01
    -12.536  0.0000E+00  0.5000E-01
    -12.449  0.0000E+00  0.5000E-01
    -12.362  0.0000E+00  0.5000E-01
    -12.275  0.0000E+00  0.5000E-01
    -12.188  0.0000E+00  0.5000E-01
    -12.101  0.0000E+00  0.5000E-01
    -12.015  0.0000E+00  0.5000E-01
    -11.928  0.0000E+00  0.5000E-01
    -11.841  0.0000E+00  0.5000E-01
    -11.754  0.0000E+00  0.5000E-01
    -11.667  0.0000E+00  0.5000E-01
    -11.581  0.0000E+00  0.5000E-01
    -11.494  0.0000E+00  0.5000E-01
    -11.407  0.0000E+00  0.5000E-01
    -11.320  0.0000E+00  0.5000E-01
    -11.233  0.0000E+00  0.5000E-01
    -11.146  0.0000E+00  0.5000E-01
    -11.060  0.0000E+00  0.5000E-01
    -10.973  0.0000E+00  0.5000E-01
    -10.886  0.0000E+00  0.5000E-01
    -10.799  0.0000E+00  0.5000E-01
    -10.712  0.0000E+00  0.5000E-01
    -10.625  0.0000E+00  0.5000E-01
    -10.539  0.0000E+00  0.5000E-01
    -10.452  0.0000E+00  0.5000E-01
    -10.365  0.0000E+00  0.5000E-01
    -10.278  0.0000E+00  0.5000E-01
    -10.191  0.0000E+00  0.5000E-01
    -10.105  0.0000E+00  0.5000E-01
    -10.018  0.0000E+00  0.5000E-01
     -9.931  0.0000E+00  0.5000E-01
     -9.844  0.0000E+00  0.5000E-01
     -9.757  0.0000E+00  0.5000E-01
     -9.670  0.0000E+00  0.5000E-01
     -9.584  0.0000E+00  0.5000E-01
     -9.497  0.0000E+00  0.5000E-01
     -9.410  0.0000E+00  0.5000E-01
     -9.323  0.0000E+00  0.5000E-01
     -9.236  0.0000E+00  0.5000E-01
     -9.150  0.0000E+00  0.5000E-01
     -9.063  0.0000E+00  0.5000E-01
     -8.976  0.0000E+00  0.5000E-01
     -8.889  0.0000E+00  0.5000E-01
     -8.802  0.0000E+00  0.5000E-01
     -8.715  0.0000E+00  0.5000E-01
     -8.629  0.0000E+00  0.5000E-01
     -8.542  0.0000E+00  0.5000E-01
     -8.455  0.0000E+00  0.5000E-01
     -8.368  0.0000E+00  0.5000E-01
     -8.281  0.0000E+00  0.5000E-01
     -8.194  0.0000E+00  0.5000E-01
     -8.108  0.0000E+00  0.5000E-01
     -8.021  0.0000E+00  0.5000E-01
     -7.934  0.0000E+00  0.5000E-01
     -7.847  0.0000E+00  0.5000E-01
     -7.760  0.0000E+00  0.5000E-01
     -7.674  0.0000E+00  0.5000E-01
     -7.587  0.0000E+00  0.5000E-01
     -7.500  0.0000E+00  0.5000E-01
     -7.413  0.0000E+00  0.5000E-01
     -7.326  0.0000E+00  0.5000E-01
     -7.239  0.0000E+00  0.5000E-01
     -7.153  0.0000E+00  0.5000E-01
     -7.066  0.0000E+00  0.5000E-01
     -6.979  0.0000E+00  0.5000E-01
     -6.892  0.0000E+00  0.5000E-01
     -6.805  0.0000E+00  0.5000E-01
     -6.719  0.0000E+00  0.5000E-01
     -6.632  0.0000E+00  0.5000E-01
     -6.545  0.0000E+00  0.5000E-01
     -6.458  0.0000E+00  0.5000E-01
     -6.371  0.0000E+00  0.5000E-01
     -6.284  0.0000E+00  0.5000E-01
     -6.198  0.0000E+00  0.5000E-01
     -6.111  0.0000E+00  0.5000E-01
     -6.024  0.0000E+00  0.5000E-01
     -5.937  0.0000E+00  0.5000E-01
     -5.850  0.0000E+00  0.5000E-01
     -5.764  0.0000E+00  0.5000E-01
     -5.677  0.0000E+00  0.5000E-01
     -5.590  0.0000E+00  0.5000E-01
     -5.503  0.0000E+00  0.5000E-01
     -5.416  0.0000E+00  0.5000E-01
     -5.329  0.0000E+00  0.5000E-01
     -5.243  0.0000E+00  0.5000E-01
     -5.156  0.0000E+00  0.5000E-01
     -5.069  0.0000E+00  0.5000E-01
     -4.982  0.0000E+00  0.5000E-01
     -4.895  0.0000E+00  0.5000E-01
     -4.808  0.0000E+00  0.5000E-01
     -4.722  0.0000E+00  0.5000E-01
     -4.635  0.3074E-12  0.5000E-01
     -4.548  0.4401E-06  0.5000E-01
     -4.461  0.1984E-02  0.5017E-01
     -4.374  0.4900E-01  0.5443E-01
     -4.288  0.1013E+00  0.6322E-01
     -4.201  0.3307E+00  0.9193E-01
     -4.114  0.4711E+00  0.1328E+00
     -4.027  0.4649E+00  0.1732E+00
     -3.940  0.4104E+00  0.2088E+00
     -3.853  0.2624E+00  0.2316E+00
     -3.767  0.3403E+00  0.2612E+00
     -3.680  0.1151E+01  0.3611E+00
     -3.593  0.8634E+00  0.4361E+00
     -3.506  0.1146E+01  0.5356E+00
     -3.419  0.2275E+00  0.5553E+00
     -3.333  0.1389E+00  0.5674E+00
     -3.246  0.5994E+00  0.6194E+00
     -3.159  0.9837E+00  0.7048E+00
     -3.072  0.1258E+01  0.8140E+00
     -2.985  0.1292E+01  0.9262E+00
     -2.898  0.8882E+00  0.1003E+01
     -2.812  0.1187E+01  0.1106E+01
     -2.725  0.4373E+00  0.1144E+01
     -2.638  0.5458E+00  0.1192E+01
     -2.551  0.1519E+01  0.1324E+01
     -2.464  0.1326E+01  0.1439E+01
     -2.378  0.1784E+01  0.1594E+01
     -2.291  0.1979E+00  0.1611E+01
     -2.204  0.6663E+00  0.1669E+01
     -2.117  0.5159E+00  0.1713E+01
     -2.030  0.1653E+01  0.1857E+01
     -1.943  0.1895E+01  0.2022E+01
     -1.857  0.1691E+01  0.2168E+01
     -1.770  0.8994E+00  0.2246E+01
     -1.683  0.1494E+01  0.2376E+01
     -1.596  0.1183E+01  0.2479E+01
     -1.509  0.1378E+01  0.2599E+01
     -1.422  0.2279E+01  0.2796E+01
     -1.336  0.9142E+00  0.2876E+01
     -1.249  0.1040E+01  0.2966E+01
     -1.162  0.6541E+00  0.3023E+01
     -1.075  0.1006E+01  0.3110E+01
     -0.988  0.1123E+01  0.3208E+01
     -0.902  0.9494E+00  0.3290E+01
     -0.815  0.1409E+01  0.3412E+01
     -0.728  0.3758E+01  0.3739E+01
     -0.641  0.1636E+01  0.3881E+01
     -0.554  0.1266E+01  0.3991E+01
     -0.467  0.4219E+00  0.4027E+01
     -0.381  0.1993E+01  0.4200E+01
     -0.294  0.2716E+01  0.4436E+01
     -0.207  0.2215E+01  0.4628E+01
     -0.120  0.1127E+01  0.4726E+01
     -0.033  0.6407E+00  0.4782E+01
      0.053  0.8042E+00  0.4852E+01
      0.140  0.7970E+00  0.4921E+01
      0.227  0.2130E+01  0.5106E+01
      0.314  0.1737E+01  0.5257E+01
      0.401  0.2037E+01  0.5434E+01
      0.488  0.2980E+01  0.5692E+01
      0.574  0.1652E+01  0.5836E+01
      0.661  0.1155E+01  0.5936E+01
      0.748  0.9310E+00  0.6017E+01
      0.835  0.2261E+01  0.6213E+01
      0.922  0.3117E+01  0.6484E+01
      1.009  0.2867E+00  0.6509E+01
      1.095  0.9637E+00  0.6592E+01
      1.182  0.1372E+01  0.6711E+01
      1.269  0.3728E+01  0.7035E+01
      1.356  0.2802E+01  0.7278E+01
      1.443  0.2309E+01  0.7479E+01
      1.529  0.1620E+01  0.7619E+01
      1.616  0.1657E+01  0.7763E+01
      1.703  0.1271E+01  0.7874E+01
      1.790  0.2043E+01  0.8051E+01
      1.877  0.2782E+01  0.8293E+01
      1.964  0.2627E+01  0.8521E+01
      2.050  0.1343E+01  0.8637E+01
      2.137  0.4422E+00  0.8676E+01
      2.224  0.1527E+00  0.8689E+01
      2.311  0.1198E+01  0.8793E+01
      2.398  0.3551E+01  0.9101E+01
      2.484  0.2575E+01  0.9325E+01
      2.571  0.2426E+01  0.9535E+01
      2.658  0.3063E+01  0.9801E+01
      2.745  0.1567E+01  0.9937E+01
      2.832  0.1755E+01  0.1009E+02
      2.919  0.4637E+01  0.1049E+02
      3.005  0.3266E+01  0.1078E+02
      3.092  0.1528E+01  0.1091E+02
      3.179  0.2252E+01  0.1110E+02
      3.266  0.8744E+00  0.1118E+02
      3.353  0.1169E+01  0.1128E+02
      3.439  0.2988E+01  0.1154E+02
      3.526  0.1807E+01  0.1170E+02
      3.613  0.1725E+01  0.1185E+02
      3.700  0.3879E+01  0.1218E+02
      3.787  0.8951E+00  0.1226E+02
      3.874  0.5104E+00  0.1231E+02
      3.960  0.5505E+01  0.1278E+02
      4.047  0.3196E+01  0.1306E+02
      4.134  0.1063E+01  0.1315E+02
      4.221  0.2779E+01  0.1340E+02
      4.308  0.1207E+01  0.1350E+02
      4.395  0.1376E+01  0.1362E+02
      4.481  0.4835E+01  0.1404E+02
      4.568  0.2482E+01  0.1425E+02
      4.655  0.1426E+01  0.1438E+02
      4.742  0.3179E+01  0.1465E+02
      4.829  0.1432E+01  0.1478E+02
      4.915  0.1974E+01  0.1495E+02
      5.002  0.3215E+01  0.1523E+02
      5.089  0.2426E+01  0.1544E+02
      5.176  0.3089E+01  0.1571E+02
      5.263  0.1696E+01  0.1586E+02
      5.350  0.1052E+01  0.1595E+02
      5.436  0.1530E+01  0.1608E+02
      5.523  0.2051E+01  0.1626E+02
      5.610  0.3122E+01  0.1653E+02
      5.697  0.3442E+01  0.1683E+02
      5.784  0.3904E+01  0.1717E+02
      5.870  0.2694E+01  0.1740E+02
      5.957  0.2094E+01  0.1758E+02
      6.044  0.2041E+01  0.1776E+02
      6.131  0.3564E+01  0.1807E+02
      6.218  0.3091E+01  0.1834E+02
      6.305  0.1906E+01  0.1850E+02
      6.391  0.2113E+01  0.1869E+02
      6.478  0.6253E+00  0.1874E+02
      6.565  0.1958E+01  0.1891E+02
      6.652  0.2467E+01  0.1912E+02
      6.739  0.7714E+00  0.1919E+02
      6.826  0.2216E+01  0.1938E+02
      6.912  0.3075E+01  0.1965E+02
      6.999  0.3021E+01  0.1991E+02
      7.086  0.4039E+01  0.2026E+02
      7.173  0.4834E+01  0.2068E+02
      7.260  0.2044E+01  0.2086E+02
      7.346  0.2497E+01  0.2108E+02
      7.433  0.2078E+01  0.2126E+02
      7.520  0.1946E+01  0.2143E+02
      7.607  0.6467E+01  0.2199E+02
      7.694  0.2683E+01  0.2222E+02
      7.781  0.3282E+01  0.2251E+02
      7.867  0.3422E+01  0.2280E+02
      7.954  0.2239E+01  0.2300E+02
      8.041  0.8217E+00  0.2307E+02
      8.128  0.2025E+01  0.2325E+02
      8.215  0.3547E+01  0.2355E+02
      8.301  0.2618E+01  0.2378E+02
      8.388  0.9279E+00  0.2386E+02
      8.475  0.1173E+01  0.2396E+02
      8.562  0.3785E+01  0.2429E+02
      8.649  0.3411E+01  0.2459E+02
      8.736  0.2098E+01  0.2477E+02
      8.822  0.2511E+01  0.2499E+02
      8.909  0.2034E+01  0.2516E+02
      8.996  0.3314E+01  0.2545E+02
      9.083  0.2458E+01  0.2567E+02
      9.170  0.1305E+01  0.2578E+02
      9.256  0.1215E+00  0.2579E+02
      9.343  0.1194E+00  0.2580E+02
      9.430  0.4993E-02  0.2580E+02
      9.517  0.2147E-05  0.2580E+02
      9.604  0.3440E-11  0.2580E+02
      9.691  0.0000E+00  0.2580E+02
      9.777  0.0000E+00  0.2580E+02
      9.864  0.0000E+00  0.2580E+02
      9.951  0.0000E+00  0.2580E+02
     10.038  0.0000E+00  0.2580E+02
     10.125  0.0000E+00  0.2580E+02
     10.212  0.0000E+00  0.2580E+02
     10.298  0.0000E+00  0.2580E+02
     10.385  0.0000E+00  0.2580E+02
     10.472  0.0000E+00  0.2580E+02
