<?xml version="1.0" encoding="ISO-8859-1"?>
<modeling>
 <generator>
  <i name="program" type="string">vasp </i>
  <i name="version" type="string">6.2.1  </i>
  <i name="subversion" type="string">16May21 (build Jun 16 2021 03:23:30) complex                          parallel </i>
  <i name="platform" type="string">LinuxPGI </i>
  <i name="date" type="string">2022 04 23 </i>
  <i name="time" type="string">21:27:14 </i>
 </generator>
 <incar>
  <i type="string" name="SYSTEM">NiAl</i>
  <i type="int" name="ISTART">     0</i>
  <i type="int" name="NELMIN">     6</i>
  <i type="int" name="IBRION">     2</i>
  <i name="EDIFF">      0.00000010</i>
  <i type="int" name="NSW">    40</i>
  <i type="int" name="ISIF">     1</i>
  <i name="ENCUT">    360.00000000</i>
  <i name="POTIM">      0.20000000</i>
  <i type="string" name="LREAL">Auto</i>
  <i type="logical" name="LPLANE"> T  </i>
  <i type="int" name="ISMEAR">     0</i>
  <i name="SIGMA">      0.05000000</i>
  <i type="logical" name="LWAVE"> F  </i>
  <i type="logical" name="LCHARG"> F  </i>
  <i type="int" name="IVDW">    12</i>
 </incar>
 <primitive_cell>
  <structure name="primitive_cell" >
   <crystal>
    <varray name="basis" >
     <v>      16.19800000       0.00000000       0.00000000 </v>
     <v>       0.00000000      16.19800000       0.00000000 </v>
     <v>       0.00000000       0.00000000      16.19800000 </v>
    </varray>
    <i name="volume">   4249.95355439 </i>
    <varray name="rec_basis" >
     <v>       0.06173602       0.00000000       0.00000000 </v>
     <v>       0.00000000       0.06173602       0.00000000 </v>
     <v>       0.00000000       0.00000000       0.06173602 </v>
    </varray>
   </crystal>
   <varray name="positions" >
    <v>       0.00000000       0.00000000       0.00000000 </v>
    <v>       0.00000000       0.12500000       0.12500000 </v>
    <v>       0.12500000       0.00000000       0.12500000 </v>
    <v>       0.12500000       0.12500000       0.00000000 </v>
    <v>       0.00000000       0.00000000       0.25000000 </v>
    <v>       0.00000000       0.12500000       0.37500000 </v>
    <v>       0.12500000       0.00000000       0.37500000 </v>
    <v>       0.12500000       0.12500000       0.25000000 </v>
    <v>       0.00000000       0.00000000       0.50000000 </v>
    <v>       0.00000000       0.12500000       0.62500000 </v>
    <v>       0.12500000       0.00000000       0.62500000 </v>
    <v>       0.12500000       0.12500000       0.50000000 </v>
    <v>       0.00000000       0.00000000       0.75000000 </v>
    <v>       0.00000000       0.12500000       0.87500000 </v>
    <v>       0.12500000       0.00000000       0.87500000 </v>
    <v>       0.12500000       0.12500000       0.75000000 </v>
    <v>       0.00000000       0.25000000       0.00000000 </v>
    <v>       0.00000000       0.37500000       0.12500000 </v>
    <v>       0.12500000       0.25000000       0.12500000 </v>
    <v>       0.12500000       0.37500000       0.00000000 </v>
    <v>       0.00000000       0.25000000       0.25000000 </v>
    <v>       0.00000000       0.37500000       0.37500000 </v>
    <v>       0.12500000       0.25000000       0.37500000 </v>
    <v>       0.12500000       0.37500000       0.25000000 </v>
    <v>       0.00000000       0.25000000       0.50000000 </v>
    <v>       0.00000000       0.37500000       0.62500000 </v>
    <v>       0.12500000       0.25000000       0.62500000 </v>
    <v>       0.12500000       0.37500000       0.50000000 </v>
    <v>       0.00000000       0.25000000       0.75000000 </v>
    <v>       0.00000000       0.37500000       0.87500000 </v>
    <v>       0.12500000       0.25000000       0.87500000 </v>
    <v>       0.12500000       0.37500000       0.75000000 </v>
    <v>       0.00000000       0.50000000       0.00000000 </v>
    <v>       0.00000000       0.62500000       0.12500000 </v>
    <v>       0.12500000       0.50000000       0.12500000 </v>
    <v>       0.12500000       0.62500000       0.00000000 </v>
    <v>       0.00000000       0.50000000       0.25000000 </v>
    <v>       0.00000000       0.62500000       0.37500000 </v>
    <v>       0.12500000       0.50000000       0.37500000 </v>
    <v>       0.12500000       0.62500000       0.25000000 </v>
    <v>       0.00000000       0.50000000       0.50000000 </v>
    <v>       0.00000000       0.62500000       0.62500000 </v>
    <v>       0.12500000       0.50000000       0.62500000 </v>
    <v>       0.12500000       0.62500000       0.50000000 </v>
    <v>       0.00000000       0.50000000       0.75000000 </v>
    <v>       0.00000000       0.62500000       0.87500000 </v>
    <v>       0.12500000       0.50000000       0.87500000 </v>
    <v>       0.12500000       0.62500000       0.75000000 </v>
    <v>       0.00000000       0.75000000       0.00000000 </v>
    <v>       0.00000000       0.87500000       0.12500000 </v>
    <v>       0.12500000       0.75000000       0.12500000 </v>
    <v>       0.12500000       0.87500000       0.00000000 </v>
    <v>       0.00000000       0.75000000       0.25000000 </v>
    <v>       0.00000000       0.87500000       0.37500000 </v>
    <v>       0.12500000       0.75000000       0.37500000 </v>
    <v>       0.12500000       0.87500000       0.25000000 </v>
    <v>       0.00000000       0.75000000       0.50000000 </v>
    <v>       0.00000000       0.87500000       0.62500000 </v>
    <v>       0.12500000       0.75000000       0.62500000 </v>
    <v>       0.12500000       0.87500000       0.50000000 </v>
    <v>       0.00000000       0.75000000       0.75000000 </v>
    <v>       0.00000000       0.87500000       0.87500000 </v>
    <v>       0.12500000       0.75000000       0.87500000 </v>
    <v>       0.12500000       0.87500000       0.75000000 </v>
    <v>       0.25000000       0.00000000       0.00000000 </v>
    <v>       0.25000000       0.12500000       0.12500000 </v>
    <v>       0.37500000       0.00000000       0.12500000 </v>
    <v>       0.37500000       0.12500000       0.00000000 </v>
    <v>       0.25000000       0.00000000       0.25000000 </v>
    <v>       0.25000000       0.12500000       0.37500000 </v>
    <v>       0.37500000       0.00000000       0.37500000 </v>
    <v>       0.37500000       0.12500000       0.25000000 </v>
    <v>       0.25000000       0.00000000       0.50000000 </v>
    <v>       0.25000000       0.12500000       0.62500000 </v>
    <v>       0.37500000       0.00000000       0.62500000 </v>
    <v>       0.37500000       0.12500000       0.50000000 </v>
    <v>       0.25000000       0.00000000       0.75000000 </v>
    <v>       0.25000000       0.12500000       0.87500000 </v>
    <v>       0.37500000       0.00000000       0.87500000 </v>
    <v>       0.37500000       0.12500000       0.75000000 </v>
    <v>       0.25000000       0.25000000       0.00000000 </v>
    <v>       0.25000000       0.37500000       0.12500000 </v>
    <v>       0.37500000       0.25000000       0.12500000 </v>
    <v>       0.37500000       0.37500000       0.00000000 </v>
    <v>       0.25000000       0.25000000       0.25000000 </v>
    <v>       0.25000000       0.37500000       0.37500000 </v>
    <v>       0.37500000       0.25000000       0.37500000 </v>
    <v>       0.37500000       0.37500000       0.25000000 </v>
    <v>       0.25000000       0.25000000       0.50000000 </v>
    <v>       0.25000000       0.37500000       0.62500000 </v>
    <v>       0.37500000       0.25000000       0.62500000 </v>
    <v>       0.37500000       0.37500000       0.50000000 </v>
    <v>       0.25000000       0.25000000       0.75000000 </v>
    <v>       0.25000000       0.37500000       0.87500000 </v>
    <v>       0.37500000       0.25000000       0.87500000 </v>
    <v>       0.37500000       0.37500000       0.75000000 </v>
    <v>       0.25000000       0.50000000       0.00000000 </v>
    <v>       0.25000000       0.62500000       0.12500000 </v>
    <v>       0.37500000       0.50000000       0.12500000 </v>
    <v>       0.37500000       0.62500000       0.00000000 </v>
    <v>       0.25000000       0.50000000       0.25000000 </v>
    <v>       0.25000000       0.62500000       0.37500000 </v>
    <v>       0.37500000       0.50000000       0.37500000 </v>
    <v>       0.37500000       0.62500000       0.25000000 </v>
    <v>       0.25000000       0.50000000       0.50000000 </v>
    <v>       0.25000000       0.62500000       0.62500000 </v>
    <v>       0.37500000       0.50000000       0.62500000 </v>
    <v>       0.37500000       0.62500000       0.50000000 </v>
    <v>       0.25000000       0.50000000       0.75000000 </v>
    <v>       0.25000000       0.62500000       0.87500000 </v>
    <v>       0.37500000       0.50000000       0.87500000 </v>
    <v>       0.37500000       0.62500000       0.75000000 </v>
    <v>       0.25000000       0.75000000       0.00000000 </v>
    <v>       0.25000000       0.87500000       0.12500000 </v>
    <v>       0.37500000       0.75000000       0.12500000 </v>
    <v>       0.37500000       0.87500000       0.00000000 </v>
    <v>       0.25000000       0.75000000       0.25000000 </v>
    <v>       0.25000000       0.87500000       0.37500000 </v>
    <v>       0.37500000       0.75000000       0.37500000 </v>
    <v>       0.37500000       0.87500000       0.25000000 </v>
    <v>       0.25000000       0.75000000       0.50000000 </v>
    <v>       0.25000000       0.87500000       0.62500000 </v>
    <v>       0.37500000       0.75000000       0.62500000 </v>
    <v>       0.37500000       0.87500000       0.50000000 </v>
    <v>       0.25000000       0.75000000       0.75000000 </v>
    <v>       0.25000000       0.87500000       0.87500000 </v>
    <v>       0.37500000       0.75000000       0.87500000 </v>
    <v>       0.37500000       0.87500000       0.75000000 </v>
    <v>       0.50000000       0.00000000       0.00000000 </v>
    <v>       0.50000000       0.12500000       0.12500000 </v>
    <v>       0.62500000       0.00000000       0.12500000 </v>
    <v>       0.62500000       0.12500000       0.00000000 </v>
    <v>       0.50000000       0.00000000       0.25000000 </v>
    <v>       0.50000000       0.12500000       0.37500000 </v>
    <v>       0.62500000       0.00000000       0.37500000 </v>
    <v>       0.62500000       0.12500000       0.25000000 </v>
    <v>       0.50000000       0.00000000       0.50000000 </v>
    <v>       0.50000000       0.12500000       0.62500000 </v>
    <v>       0.62500000       0.00000000       0.62500000 </v>
    <v>       0.62500000       0.12500000       0.50000000 </v>
    <v>       0.50000000       0.00000000       0.75000000 </v>
    <v>       0.50000000       0.12500000       0.87500000 </v>
    <v>       0.62500000       0.00000000       0.87500000 </v>
    <v>       0.62500000       0.12500000       0.75000000 </v>
    <v>       0.50000000       0.25000000       0.00000000 </v>
    <v>       0.50000000       0.37500000       0.12500000 </v>
    <v>       0.62500000       0.25000000       0.12500000 </v>
    <v>       0.62500000       0.37500000       0.00000000 </v>
    <v>       0.50000000       0.25000000       0.25000000 </v>
    <v>       0.50000000       0.37500000       0.37500000 </v>
    <v>       0.62500000       0.25000000       0.37500000 </v>
    <v>       0.62500000       0.37500000       0.25000000 </v>
    <v>       0.50000000       0.25000000       0.50000000 </v>
    <v>       0.50000000       0.37500000       0.62500000 </v>
    <v>       0.62500000       0.25000000       0.62500000 </v>
    <v>       0.62500000       0.37500000       0.50000000 </v>
    <v>       0.50000000       0.25000000       0.75000000 </v>
    <v>       0.50000000       0.37500000       0.87500000 </v>
    <v>       0.62500000       0.25000000       0.87500000 </v>
    <v>       0.62500000       0.37500000       0.75000000 </v>
    <v>       0.50000000       0.50000000       0.00000000 </v>
    <v>       0.50000000       0.62500000       0.12500000 </v>
    <v>       0.62500000       0.50000000       0.12500000 </v>
    <v>       0.62500000       0.62500000       0.00000000 </v>
    <v>       0.50000000       0.50000000       0.25000000 </v>
    <v>       0.50000000       0.62500000       0.37500000 </v>
    <v>       0.62500000       0.50000000       0.37500000 </v>
    <v>       0.62500000       0.62500000       0.25000000 </v>
    <v>       0.50000000       0.50000000       0.50000000 </v>
    <v>       0.50000000       0.62500000       0.62500000 </v>
    <v>       0.62500000       0.50000000       0.62500000 </v>
    <v>       0.62500000       0.62500000       0.50000000 </v>
    <v>       0.50000000       0.50000000       0.75000000 </v>
    <v>       0.50000000       0.62500000       0.87500000 </v>
    <v>       0.62500000       0.50000000       0.87500000 </v>
    <v>       0.62500000       0.62500000       0.75000000 </v>
    <v>       0.50000000       0.75000000       0.00000000 </v>
    <v>       0.50000000       0.87500000       0.12500000 </v>
    <v>       0.62500000       0.75000000       0.12500000 </v>
    <v>       0.62500000       0.87500000       0.00000000 </v>
    <v>       0.50000000       0.75000000       0.25000000 </v>
    <v>       0.50000000       0.87500000       0.37500000 </v>
    <v>       0.62500000       0.75000000       0.37500000 </v>
    <v>       0.62500000       0.87500000       0.25000000 </v>
    <v>       0.50000000       0.75000000       0.50000000 </v>
    <v>       0.50000000       0.87500000       0.62500000 </v>
    <v>       0.62500000       0.75000000       0.62500000 </v>
    <v>       0.62500000       0.87500000       0.50000000 </v>
    <v>       0.50000000       0.75000000       0.75000000 </v>
    <v>       0.50000000       0.87500000       0.87500000 </v>
    <v>       0.62500000       0.75000000       0.87500000 </v>
    <v>       0.62500000       0.87500000       0.75000000 </v>
    <v>       0.75000000       0.00000000       0.00000000 </v>
    <v>       0.75000000       0.12500000       0.12500000 </v>
    <v>       0.87500000       0.00000000       0.12500000 </v>
    <v>       0.87500000       0.12500000       0.00000000 </v>
    <v>       0.75000000       0.00000000       0.25000000 </v>
    <v>       0.75000000       0.12500000       0.37500000 </v>
    <v>       0.87500000       0.00000000       0.37500000 </v>
    <v>       0.87500000       0.12500000       0.25000000 </v>
    <v>       0.75000000       0.00000000       0.50000000 </v>
    <v>       0.75000000       0.12500000       0.62500000 </v>
    <v>       0.87500000       0.00000000       0.62500000 </v>
    <v>       0.87500000       0.12500000       0.50000000 </v>
    <v>       0.75000000       0.00000000       0.75000000 </v>
    <v>       0.75000000       0.12500000       0.87500000 </v>
    <v>       0.87500000       0.00000000       0.87500000 </v>
    <v>       0.87500000       0.12500000       0.75000000 </v>
    <v>       0.75000000       0.25000000       0.00000000 </v>
    <v>       0.75000000       0.37500000       0.12500000 </v>
    <v>       0.87500000       0.25000000       0.12500000 </v>
    <v>       0.87500000       0.37500000       0.00000000 </v>
    <v>       0.75000000       0.25000000       0.25000000 </v>
    <v>       0.75000000       0.37500000       0.37500000 </v>
    <v>       0.87500000       0.25000000       0.37500000 </v>
    <v>       0.87500000       0.37500000       0.25000000 </v>
    <v>       0.75000000       0.25000000       0.50000000 </v>
    <v>       0.75000000       0.37500000       0.62500000 </v>
    <v>       0.87500000       0.25000000       0.62500000 </v>
    <v>       0.87500000       0.37500000       0.50000000 </v>
    <v>       0.75000000       0.25000000       0.75000000 </v>
    <v>       0.75000000       0.37500000       0.87500000 </v>
    <v>       0.87500000       0.25000000       0.87500000 </v>
    <v>       0.87500000       0.37500000       0.75000000 </v>
    <v>       0.75000000       0.50000000       0.00000000 </v>
    <v>       0.75000000       0.62500000       0.12500000 </v>
    <v>       0.87500000       0.50000000       0.12500000 </v>
    <v>       0.87500000       0.62500000       0.00000000 </v>
    <v>       0.75000000       0.50000000       0.25000000 </v>
    <v>       0.75000000       0.62500000       0.37500000 </v>
    <v>       0.87500000       0.50000000       0.37500000 </v>
    <v>       0.87500000       0.62500000       0.25000000 </v>
    <v>       0.75000000       0.50000000       0.50000000 </v>
    <v>       0.75000000       0.62500000       0.62500000 </v>
    <v>       0.87500000       0.50000000       0.62500000 </v>
    <v>       0.87500000       0.62500000       0.50000000 </v>
    <v>       0.75000000       0.50000000       0.75000000 </v>
    <v>       0.75000000       0.62500000       0.87500000 </v>
    <v>       0.87500000       0.50000000       0.87500000 </v>
    <v>       0.87500000       0.62500000       0.75000000 </v>
    <v>       0.75000000       0.75000000       0.00000000 </v>
    <v>       0.75000000       0.87500000       0.12500000 </v>
    <v>       0.87500000       0.75000000       0.12500000 </v>
    <v>       0.87500000       0.87500000       0.00000000 </v>
    <v>       0.75000000       0.75000000       0.25000000 </v>
    <v>       0.75000000       0.87500000       0.37500000 </v>
    <v>       0.87500000       0.75000000       0.37500000 </v>
    <v>       0.87500000       0.87500000       0.25000000 </v>
    <v>       0.75000000       0.75000000       0.50000000 </v>
    <v>       0.75000000       0.87500000       0.62500000 </v>
    <v>       0.87500000       0.75000000       0.62500000 </v>
    <v>       0.87500000       0.87500000       0.50000000 </v>
    <v>       0.75000000       0.75000000       0.75000000 </v>
    <v>       0.75000000       0.87500000       0.87500000 </v>
    <v>       0.87500000       0.75000000       0.87500000 </v>
    <v>       0.87500000       0.87500000       0.75000000 </v>
    <v>       0.12500000       0.00000000       0.00000000 </v>
   </varray>
  </structure>
  <varray name="primitive_index" >
   <v type="int" >        1 </v>
   <v type="int" >        2 </v>
   <v type="int" >        3 </v>
   <v type="int" >        4 </v>
   <v type="int" >        5 </v>
   <v type="int" >        6 </v>
   <v type="int" >        7 </v>
   <v type="int" >        8 </v>
   <v type="int" >        9 </v>
   <v type="int" >       10 </v>
   <v type="int" >       11 </v>
   <v type="int" >       12 </v>
   <v type="int" >       13 </v>
   <v type="int" >       14 </v>
   <v type="int" >       15 </v>
   <v type="int" >       16 </v>
   <v type="int" >       17 </v>
   <v type="int" >       18 </v>
   <v type="int" >       19 </v>
   <v type="int" >       20 </v>
   <v type="int" >       21 </v>
   <v type="int" >       22 </v>
   <v type="int" >       23 </v>
   <v type="int" >       24 </v>
   <v type="int" >       25 </v>
   <v type="int" >       26 </v>
   <v type="int" >       27 </v>
   <v type="int" >       28 </v>
   <v type="int" >       29 </v>
   <v type="int" >       30 </v>
   <v type="int" >       31 </v>
   <v type="int" >       32 </v>
   <v type="int" >       33 </v>
   <v type="int" >       34 </v>
   <v type="int" >       35 </v>
   <v type="int" >       36 </v>
   <v type="int" >       37 </v>
   <v type="int" >       38 </v>
   <v type="int" >       39 </v>
   <v type="int" >       40 </v>
   <v type="int" >       41 </v>
   <v type="int" >       42 </v>
   <v type="int" >       43 </v>
   <v type="int" >       44 </v>
   <v type="int" >       45 </v>
   <v type="int" >       46 </v>
   <v type="int" >       47 </v>
   <v type="int" >       48 </v>
   <v type="int" >       49 </v>
   <v type="int" >       50 </v>
   <v type="int" >       51 </v>
   <v type="int" >       52 </v>
   <v type="int" >       53 </v>
   <v type="int" >       54 </v>
   <v type="int" >       55 </v>
   <v type="int" >       56 </v>
   <v type="int" >       57 </v>
   <v type="int" >       58 </v>
   <v type="int" >       59 </v>
   <v type="int" >       60 </v>
   <v type="int" >       61 </v>
   <v type="int" >       62 </v>
   <v type="int" >       63 </v>
   <v type="int" >       64 </v>
   <v type="int" >       65 </v>
   <v type="int" >       66 </v>
   <v type="int" >       67 </v>
   <v type="int" >       68 </v>
   <v type="int" >       69 </v>
   <v type="int" >       70 </v>
   <v type="int" >       71 </v>
   <v type="int" >       72 </v>
   <v type="int" >       73 </v>
   <v type="int" >       74 </v>
   <v type="int" >       75 </v>
   <v type="int" >       76 </v>
   <v type="int" >       77 </v>
   <v type="int" >       78 </v>
   <v type="int" >       79 </v>
   <v type="int" >       80 </v>
   <v type="int" >       81 </v>
   <v type="int" >       82 </v>
   <v type="int" >       83 </v>
   <v type="int" >       84 </v>
   <v type="int" >       85 </v>
   <v type="int" >       86 </v>
   <v type="int" >       87 </v>
   <v type="int" >       88 </v>
   <v type="int" >       89 </v>
   <v type="int" >       90 </v>
   <v type="int" >       91 </v>
   <v type="int" >       92 </v>
   <v type="int" >       93 </v>
   <v type="int" >       94 </v>
   <v type="int" >       95 </v>
   <v type="int" >       96 </v>
   <v type="int" >       97 </v>
   <v type="int" >       98 </v>
   <v type="int" >       99 </v>
   <v type="int" >      100 </v>
   <v type="int" >      101 </v>
   <v type="int" >      102 </v>
   <v type="int" >      103 </v>
   <v type="int" >      104 </v>
   <v type="int" >      105 </v>
   <v type="int" >      106 </v>
   <v type="int" >      107 </v>
   <v type="int" >      108 </v>
   <v type="int" >      109 </v>
   <v type="int" >      110 </v>
   <v type="int" >      111 </v>
   <v type="int" >      112 </v>
   <v type="int" >      113 </v>
   <v type="int" >      114 </v>
   <v type="int" >      115 </v>
   <v type="int" >      116 </v>
   <v type="int" >      117 </v>
   <v type="int" >      118 </v>
   <v type="int" >      119 </v>
   <v type="int" >      120 </v>
   <v type="int" >      121 </v>
   <v type="int" >      122 </v>
   <v type="int" >      123 </v>
   <v type="int" >      124 </v>
   <v type="int" >      125 </v>
   <v type="int" >      126 </v>
   <v type="int" >      127 </v>
   <v type="int" >      128 </v>
   <v type="int" >      129 </v>
   <v type="int" >      130 </v>
   <v type="int" >      131 </v>
   <v type="int" >      132 </v>
   <v type="int" >      133 </v>
   <v type="int" >      134 </v>
   <v type="int" >      135 </v>
   <v type="int" >      136 </v>
   <v type="int" >      137 </v>
   <v type="int" >      138 </v>
   <v type="int" >      139 </v>
   <v type="int" >      140 </v>
   <v type="int" >      141 </v>
   <v type="int" >      142 </v>
   <v type="int" >      143 </v>
   <v type="int" >      144 </v>
   <v type="int" >      145 </v>
   <v type="int" >      146 </v>
   <v type="int" >      147 </v>
   <v type="int" >      148 </v>
   <v type="int" >      149 </v>
   <v type="int" >      150 </v>
   <v type="int" >      151 </v>
   <v type="int" >      152 </v>
   <v type="int" >      153 </v>
   <v type="int" >      154 </v>
   <v type="int" >      155 </v>
   <v type="int" >      156 </v>
   <v type="int" >      157 </v>
   <v type="int" >      158 </v>
   <v type="int" >      159 </v>
   <v type="int" >      160 </v>
   <v type="int" >      161 </v>
   <v type="int" >      162 </v>
   <v type="int" >      163 </v>
   <v type="int" >      164 </v>
   <v type="int" >      165 </v>
   <v type="int" >      166 </v>
   <v type="int" >      167 </v>
   <v type="int" >      168 </v>
   <v type="int" >      169 </v>
   <v type="int" >      170 </v>
   <v type="int" >      171 </v>
   <v type="int" >      172 </v>
   <v type="int" >      173 </v>
   <v type="int" >      174 </v>
   <v type="int" >      175 </v>
   <v type="int" >      176 </v>
   <v type="int" >      177 </v>
   <v type="int" >      178 </v>
   <v type="int" >      179 </v>
   <v type="int" >      180 </v>
   <v type="int" >      181 </v>
   <v type="int" >      182 </v>
   <v type="int" >      183 </v>
   <v type="int" >      184 </v>
   <v type="int" >      185 </v>
   <v type="int" >      186 </v>
   <v type="int" >      187 </v>
   <v type="int" >      188 </v>
   <v type="int" >      189 </v>
   <v type="int" >      190 </v>
   <v type="int" >      191 </v>
   <v type="int" >      192 </v>
   <v type="int" >      193 </v>
   <v type="int" >      194 </v>
   <v type="int" >      195 </v>
   <v type="int" >      196 </v>
   <v type="int" >      197 </v>
   <v type="int" >      198 </v>
   <v type="int" >      199 </v>
   <v type="int" >      200 </v>
   <v type="int" >      201 </v>
   <v type="int" >      202 </v>
   <v type="int" >      203 </v>
   <v type="int" >      204 </v>
   <v type="int" >      205 </v>
   <v type="int" >      206 </v>
   <v type="int" >      207 </v>
   <v type="int" >      208 </v>
   <v type="int" >      209 </v>
   <v type="int" >      210 </v>
   <v type="int" >      211 </v>
   <v type="int" >      212 </v>
   <v type="int" >      213 </v>
   <v type="int" >      214 </v>
   <v type="int" >      215 </v>
   <v type="int" >      216 </v>
   <v type="int" >      217 </v>
   <v type="int" >      218 </v>
   <v type="int" >      219 </v>
   <v type="int" >      220 </v>
   <v type="int" >      221 </v>
   <v type="int" >      222 </v>
   <v type="int" >      223 </v>
   <v type="int" >      224 </v>
   <v type="int" >      225 </v>
   <v type="int" >      226 </v>
   <v type="int" >      227 </v>
   <v type="int" >      228 </v>
   <v type="int" >      229 </v>
   <v type="int" >      230 </v>
   <v type="int" >      231 </v>
   <v type="int" >      232 </v>
   <v type="int" >      233 </v>
   <v type="int" >      234 </v>
   <v type="int" >      235 </v>
   <v type="int" >      236 </v>
   <v type="int" >      237 </v>
   <v type="int" >      238 </v>
   <v type="int" >      239 </v>
   <v type="int" >      240 </v>
   <v type="int" >      241 </v>
   <v type="int" >      242 </v>
   <v type="int" >      243 </v>
   <v type="int" >      244 </v>
   <v type="int" >      245 </v>
   <v type="int" >      246 </v>
   <v type="int" >      247 </v>
   <v type="int" >      248 </v>
   <v type="int" >      249 </v>
   <v type="int" >      250 </v>
   <v type="int" >      251 </v>
   <v type="int" >      252 </v>
   <v type="int" >      253 </v>
   <v type="int" >      254 </v>
   <v type="int" >      255 </v>
   <v type="int" >      256 </v>
   <v type="int" >      257 </v>
  </varray>
 </primitive_cell>
 <kpoints>
  <generation param="Gamma">
   <v type="int" name="divisions">       2        2        2 </v>
   <v name="usershift">      0.00000000       0.00000000       0.00000000 </v>
   <v name="genvec1">      0.50000000       0.00000000       0.00000000 </v>
   <v name="genvec2">      0.00000000       0.50000000       0.00000000 </v>
   <v name="genvec3">      0.00000000       0.00000000       0.50000000 </v>
   <v name="shift">      0.00000000       0.00000000       0.00000000 </v>
  </generation>
  <varray name="kpointlist" >
   <v>       0.00000000       0.00000000       0.00000000 </v>
   <v>       0.50000000       0.00000000       0.00000000 </v>
   <v>       0.50000000       0.50000000       0.00000000 </v>
   <v>       0.50000000       0.50000000       0.50000000 </v>
  </varray>
  <varray name="weights" >
   <v>       0.12500000 </v>
   <v>       0.37500000 </v>
   <v>       0.37500000 </v>
   <v>       0.12500000 </v>
  </varray>
 </kpoints>
 <parameters>
  <separator name="general" >
   <i type="string" name="SYSTEM">NiAl</i>
   <i type="logical" name="LCOMPAT"> F  </i>
  </separator>
  <separator name="electronic" >
   <i type="string" name="PREC">normal</i>
   <i name="ENMAX">    360.00000000</i>
   <i name="ENAUG">   1139.60900000</i>
   <i name="EDIFF">      0.00000010</i>
   <i type="int" name="IALGO">    38</i>
   <i type="int" name="IWAVPR">    11</i>
   <i type="int" name="NBANDS">   516</i>
   <i type="int" name="NBANDSLOW">    -1</i>
   <i type="int" name="NBANDSHIGH">    -1</i>
   <i name="NELECT">    774.00000000</i>
   <i type="int" name="TURBO">     0</i>
   <i type="int" name="IRESTART">     0</i>
   <i type="int" name="NREBOOT">     0</i>
   <i type="int" name="NMIN">     0</i>
   <i name="EREF">      0.00000000</i>
   <separator name="electronic smearing" >
    <i type="int" name="ISMEAR">     0</i>
    <i name="SIGMA">      0.05000000</i>
    <i name="KSPACING">      0.50000000</i>
    <i type="logical" name="KGAMMA"> T  </i>
    <i type="logical" name="KBLOWUP"> T  </i>
   </separator>
   <separator name="electronic projectors" >
    <i type="logical" name="LREAL"> T  </i>
    <v name="ROPT">     -0.00050000     -0.00050000</v>
    <i type="int" name="LMAXPAW">  -100</i>
    <i type="int" name="LMAXMIX">     2</i>
    <i type="logical" name="NLSPLINE"> F  </i>
   </separator>
   <separator name="electronic startup" >
    <i type="int" name="ISTART">     0</i>
    <i type="int" name="ICHARG">     2</i>
    <i type="int" name="INIWAV">     1</i>
   </separator>
   <separator name="electronic spin" >
    <i type="int" name="ISPIN">     1</i>
    <i type="logical" name="LNONCOLLINEAR"> F  </i>
    <v name="MAGMOM">      1.00000000      1.00000000      1.00000000      1.00000000      1.00000000      1.00000000      1.00000000      1.00000000      1.00000000      1.00000000      1.00000000      1.00000000      1.00000000      1.00000000      1.00000000      1.00000000      1.00000000      1.00000000      1.00000000      1.00000000
      1.00000000      1.00000000      1.00000000      1.00000000      1.00000000      1.00000000      1.00000000      1.00000000      1.00000000      1.00000000      1.00000000      1.00000000      1.00000000      1.00000000      1.00000000      1.00000000      1.00000000      1.00000000      1.00000000      1.00000000
      1.00000000      1.00000000      1.00000000      1.00000000      1.00000000      1.00000000      1.00000000      1.00000000      1.00000000      1.00000000      1.00000000      1.00000000      1.00000000      1.00000000      1.00000000      1.00000000      1.00000000      1.00000000      1.00000000      1.00000000
      1.00000000      1.00000000      1.00000000      1.00000000      1.00000000      1.00000000      1.00000000      1.00000000      1.00000000      1.00000000      1.00000000      1.00000000      1.00000000      1.00000000      1.00000000      1.00000000      1.00000000      1.00000000      1.00000000      1.00000000
      1.00000000      1.00000000      1.00000000      1.00000000      1.00000000      1.00000000      1.00000000      1.00000000      1.00000000      1.00000000      1.00000000      1.00000000      1.00000000      1.00000000      1.00000000      1.00000000      1.00000000      1.00000000      1.00000000      1.00000000
      1.00000000      1.00000000      1.00000000      1.00000000      1.00000000      1.00000000      1.00000000      1.00000000      1.00000000      1.00000000      1.00000000      1.00000000      1.00000000      1.00000000      1.00000000      1.00000000      1.00000000      1.00000000      1.00000000      1.00000000
      1.00000000      1.00000000      1.00000000      1.00000000      1.00000000      1.00000000      1.00000000      1.00000000      1.00000000      1.00000000      1.00000000      1.00000000      1.00000000      1.00000000      1.00000000      1.00000000      1.00000000      1.00000000      1.00000000      1.00000000
      1.00000000      1.00000000      1.00000000      1.00000000      1.00000000      1.00000000      1.00000000      1.00000000      1.00000000      1.00000000      1.00000000      1.00000000      1.00000000      1.00000000      1.00000000      1.00000000      1.00000000      1.00000000      1.00000000      1.00000000
      1.00000000      1.00000000      1.00000000      1.00000000      1.00000000      1.00000000      1.00000000      1.00000000      1.00000000      1.00000000      1.00000000      1.00000000      1.00000000      1.00000000      1.00000000      1.00000000      1.00000000      1.00000000      1.00000000      1.00000000
      1.00000000      1.00000000      1.00000000      1.00000000      1.00000000      1.00000000      1.00000000      1.00000000      1.00000000      1.00000000      1.00000000      1.00000000      1.00000000      1.00000000      1.00000000      1.00000000      1.00000000      1.00000000      1.00000000      1.00000000
      1.00000000      1.00000000      1.00000000      1.00000000      1.00000000      1.00000000      1.00000000      1.00000000      1.00000000      1.00000000      1.00000000      1.00000000      1.00000000      1.00000000      1.00000000      1.00000000      1.00000000      1.00000000      1.00000000      1.00000000
      1.00000000      1.00000000      1.00000000      1.00000000      1.00000000      1.00000000      1.00000000      1.00000000      1.00000000      1.00000000      1.00000000      1.00000000      1.00000000      1.00000000      1.00000000      1.00000000      1.00000000      1.00000000      1.00000000      1.00000000
      1.00000000      1.00000000      1.00000000      1.00000000      1.00000000      1.00000000      1.00000000      1.00000000      1.00000000      1.00000000      1.00000000      1.00000000      1.00000000      1.00000000      1.00000000      1.00000000      1.00000000</v>
    <i name="NUPDOWN">     -1.00000000</i>
    <i type="logical" name="LSORBIT"> F  </i>
    <v name="SAXIS">      0.00000000      0.00000000      1.00000000</v>
    <i type="logical" name="LSPIRAL"> F  </i>
    <v name="QSPIRAL">      0.00000000      0.00000000      0.00000000</v>
    <i type="logical" name="LZEROZ"> F  </i>
   </separator>
   <separator name="electronic exchange-correlation" >
    <i type="logical" name="LASPH"> F  </i>
    <i type="logical" name="LMETAGGA"> F  </i>
   </separator>
   <separator name="electronic convergence" >
    <i type="int" name="NELM">    60</i>
    <i type="int" name="NELMDL">    -5</i>
    <i type="int" name="NELMIN">     6</i>
    <i name="ENINI">    360.00000000</i>
    <separator name="electronic convergence detail" >
     <i type="logical" name="LDIAG"> T  </i>
     <i type="logical" name="LSUBROT"> F  </i>
     <i name="WEIMIN">      0.00100000</i>
     <i name="EBREAK">      0.00000000</i>
     <i name="DEPER">      0.30000000</i>
     <i type="int" name="NRMM">     4</i>
     <i name="TIME">      0.40000000</i>
    </separator>
   </separator>
   <separator name="electronic mixer" >
    <i name="AMIX">      0.40000000</i>
    <i name="BMIX">      1.00000000</i>
    <i name="AMIN">      0.10000000</i>
    <i name="AMIX_MAG">      1.60000000</i>
    <i name="BMIX_MAG">      1.00000000</i>
    <separator name="electronic mixer details" >
     <i type="int" name="IMIX">     4</i>
     <i type="logical" name="MIXFIRST"> F  </i>
     <i type="int" name="MAXMIX">   -45</i>
     <i name="WC">    100.00000000</i>
     <i type="int" name="INIMIX">     1</i>
     <i type="int" name="MIXPRE">     1</i>
     <i type="int" name="MREMOVE">     5</i>
    </separator>
   </separator>
   <separator name="electronic dipolcorrection" >
    <i type="logical" name="LDIPOL"> F  </i>
    <i type="logical" name="LMONO"> F  </i>
    <i type="int" name="IDIPOL">     0</i>
    <i name="EPSILON">      1.00000000</i>
    <v name="DIPOL">   -100.00000000   -100.00000000   -100.00000000</v>
    <i name="EFIELD">      0.00000000</i>
   </separator>
  </separator>
  <separator name="grids" >
   <i type="int" name="NGX">    80</i>
   <i type="int" name="NGY">    80</i>
   <i type="int" name="NGZ">    80</i>
   <i type="int" name="NGXF">   160</i>
   <i type="int" name="NGYF">   160</i>
   <i type="int" name="NGZF">   160</i>
   <i type="logical" name="ADDGRID"> F  </i>
  </separator>
  <separator name="ionic" >
   <i type="int" name="NSW">    40</i>
   <i type="int" name="IBRION">     2</i>
   <i type="int" name="MDALGO">     0</i>
   <i type="int" name="ISIF">     1</i>
   <i name="PSTRESS">      0.00000000</i>
   <i name="EDIFFG">      0.00000100</i>
   <i type="int" name="NFREE">     1</i>
   <i name="POTIM">      0.20000000</i>
   <i name="SMASS">     -3.00000000</i>
   <i name="SCALEE">      1.00000000</i>
  </separator>
  <separator name="ionic md" >
   <i name="TEBEG">      0.00010000</i>
   <i name="TEEND">      0.00010000</i>
   <i type="int" name="NBLOCK">     1</i>
   <i type="int" name="KBLOCK">    40</i>
   <i type="int" name="NPACO">   256</i>
   <i name="APACO">     16.00000000</i>
  </separator>
  <separator name="symmetry" >
   <i type="int" name="ISYM">     2</i>
   <i name="SYMPREC">      0.00001000</i>
  </separator>
  <separator name="dos" >
   <i type="int" name="LORBIT">     0</i>
   <v name="RWIGS">     -1.00000000     -1.00000000</v>
   <i type="int" name="NEDOS">   301</i>
   <i name="EMIN">     10.00000000</i>
   <i name="EMAX">    -10.00000000</i>
   <i name="EFERMI">      0.00000000</i>
  </separator>
  <separator name="writing" >
   <i type="int" name="NWRITE">     2</i>
   <i type="logical" name="LWAVE"> F  </i>
   <i type="logical" name="LDOWNSAMPLE"> F  </i>
   <i type="logical" name="LCHARG"> F  </i>
   <i type="logical" name="LPARD"> F  </i>
   <i type="logical" name="LVTOT"> F  </i>
   <i type="logical" name="LVHAR"> F  </i>
   <i type="logical" name="LELF"> F  </i>
   <i type="logical" name="LOPTICS"> F  </i>
   <v name="STM">      0.00000000      0.00000000      0.00000000      0.00000000      0.00000000      0.00000000      0.00000000</v>
  </separator>
  <separator name="performance" >
   <i type="int" name="NPAR">     1</i>
   <i type="int" name="NSIM">     4</i>
   <i type="int" name="NBLK">    -1</i>
   <i type="logical" name="LPLANE"> T  </i>
   <i type="logical" name="LSCALAPACK"> T  </i>
   <i type="logical" name="LSCAAWARE"> F  </i>
   <i type="logical" name="LSCALU"> F  </i>
   <i type="logical" name="LASYNC"> F  </i>
   <i type="logical" name="LORBITALREAL"> F  </i>
  </separator>
  <separator name="miscellaneous" >
   <i type="int" name="IDIOT">     3</i>
   <i type="int" name="PHON_NSTRUCT">    -1</i>
   <i type="logical" name="LMUSIC"> F  </i>
   <v name="POMASS">     26.98200000     16.00000000</v>
   <v name="DARWINR">      0.00000000      0.00000000</v>
   <v name="DARWINV">      1.00000000      1.00000000</v>
   <i type="logical" name="LCORR"> T  </i>
  </separator>
  <i type="logical" name="GGA_COMPAT"> T  </i>
  <i type="logical" name="LBERRY"> F  </i>
  <i type="int" name="ICORELEVEL">     0</i>
  <i type="logical" name="LDAU"> F  </i>
  <i type="int" name="I_CONSTRAINED_M">     0</i>
  <separator name="electronic exchange-correlation" >
   <i type="string" name="GGA">--</i>
   <i type="int" name="VOSKOWN">     0</i>
   <i type="logical" name="LHFCALC"> F  </i>
   <i type="string" name="PRECFOCK"></i>
   <i type="logical" name="LSYMGRAD"> F  </i>
   <i type="logical" name="LHFONE"> F  </i>
   <i type="logical" name="LRHFCALC"> F  </i>
   <i type="logical" name="LTHOMAS"> F  </i>
   <i type="logical" name="LMODELHF"> F  </i>
   <i type="logical" name="LFOCKACE"> F  </i>
   <i name="ENCUT4O">     -1.00000000</i>
   <i type="int" name="EXXOEP">     0</i>
   <i type="int" name="FOURORBIT">     0</i>
   <i name="AEXX">      0.00000000</i>
   <i name="HFALPHA">      0.00000000</i>
   <i name="MCALPHA">      0.00000000</i>
   <i name="ALDAX">      1.00000000</i>
   <i name="AGGAX">      1.00000000</i>
   <i name="ALDAC">      1.00000000</i>
   <i name="AGGAC">      1.00000000</i>
   <i type="int" name="NKREDX">     1</i>
   <i type="int" name="NKREDY">     1</i>
   <i type="int" name="NKREDZ">     1</i>
   <i type="logical" name="SHIFTRED"> F  </i>
   <i type="logical" name="ODDONLY"> F  </i>
   <i type="logical" name="EVENONLY"> F  </i>
   <i type="int" name="LMAXFOCK">     0</i>
   <i type="int" name="NMAXFOCKAE">     0</i>
   <i type="logical" name="LFOCKAEDFT"> F  </i>
   <i name="HFSCREEN">      0.00000000</i>
   <i name="HFSCREENC">      0.00000000</i>
   <i type="int" name="NBANDSGWLOW">     0</i>
  </separator>
  <separator name="vdW DFT" >
   <i type="logical" name="LUSE_VDW"> F  </i>
   <i name="Zab_VDW">     -0.84910000</i>
   <i name="PARAM1">      0.12340000</i>
   <i name="PARAM2">      1.00000000</i>
   <i name="PARAM3">      0.00000000</i>
  </separator>
  <separator name="model GW" >
   <i type="int" name="MODEL_GW">     0</i>
   <i name="MODEL_EPS0">      9.92207056</i>
   <i name="MODEL_ALPHA">      1.00000000</i>
  </separator>
  <separator name="linear response parameters" >
   <i type="logical" name="LEPSILON"> F  </i>
   <i type="logical" name="LRPA"> F  </i>
   <i type="logical" name="LNABLA"> F  </i>
   <i type="logical" name="LVEL"> F  </i>
   <i type="int" name="KINTER">     0</i>
   <i name="CSHIFT">      0.10000000</i>
   <i name="OMEGAMAX">     -1.00000000</i>
   <i name="DEG_THRESHOLD">      0.00200000</i>
   <i name="RTIME">     -0.10000000</i>
   <i name="WPLASMAI">      0.00000000</i>
   <v name="DFIELD">      0.00000000      0.00000000      0.00000000</v>
   <v name="WPLASMA">      0.00000000      0.00000000      0.00000000      0.00000000      0.00000000      0.00000000      0.00000000      0.00000000      0.00000000</v>
  </separator>
  <separator name="orbital magnetization" >
   <i type="logical" name="NUCIND"> F  </i>
   <v name="MAGPOS">      0.00000000      0.00000000      0.00000000</v>
   <i type="logical" name="LNICSALL"> T  </i>
   <i type="logical" name="ORBITALMAG"> F  </i>
   <i type="logical" name="LMAGBLOCH"> F  </i>
   <i type="logical" name="LCHIMAG"> F  </i>
   <i type="logical" name="LGAUGE"> T  </i>
   <i type="int" name="MAGATOM">     0</i>
   <v name="MAGDIPOL">      0.00000000      0.00000000      0.00000000</v>
   <v name="AVECCONST">      0.00000000      0.00000000      0.00000000</v>
  </separator>
  <separator name="response functions" >
   <i type="logical" name="LFINITE_TEMPERATURE"> F  </i>
   <i type="logical" name="LADDER"> F  </i>
   <i type="logical" name="LRPAFORCE"> F  </i>
   <i type="logical" name="LFXC"> F  </i>
   <i type="logical" name="LHARTREE"> T  </i>
   <i type="int" name="IBSE">     0</i>
   <v type="int" name="KPOINT">    -1     0     0     0</v>
   <i type="logical" name="LTCTC"> F  </i>
   <i type="logical" name="LTCTE"> F  </i>
   <i type="logical" name="LTETE"> F  </i>
   <i type="logical" name="LTRIPLET"> F  </i>
   <i type="logical" name="LFXCEPS"> F  </i>
   <i type="logical" name="LFXHEG"> F  </i>
   <i type="int" name="NATURALO">     2</i>
   <i type="logical" name="LHOLEGF"> F  </i>
   <i type="logical" name="L2ORDER"> F  </i>
   <i type="logical" name="LDMP1"> F  </i>
   <i type="logical" name="LMP2LT"> F  </i>
   <i type="logical" name="LSMP2LT"> F  </i>
   <i type="logical" name="LGWLF"> F  </i>
   <i name="ENCUTGW">     -2.00000000</i>
   <i name="ENCUTGWSOFT">     -2.00000000</i>
   <i name="ENCUTLF">     -1.00000000</i>
   <i type="logical" name="LESF_SPLINES"> F  </i>
   <i type="int" name="LMAXMP2">    -1</i>
   <i name="SCISSOR">      0.00000000</i>
   <i type="int" name="NOMEGA">     0</i>
   <i type="int" name="NOMEGAR">     0</i>
   <i type="int" name="NBANDSGW">    -1</i>
   <i type="int" name="NBANDSO">    -1</i>
   <i type="int" name="NBANDSV">    -1</i>
   <i type="int" name="NELM">     1</i>
   <i type="int" name="NELMHF">     1</i>
   <i type="int" name="DIM">     3</i>
   <i type="int" name="IESPILON">     4</i>
   <i type="int" name="ANTIRES">     0</i>
   <i name="OMEGAMAX">    -30.00000000</i>
   <i name="OMEGAMIN">    -30.00000000</i>
   <i name="OMEGATL">   -200.00000000</i>
   <i type="int" name="OMEGAGRID">     0</i>
   <i name="CSHIFT">     -0.10000000</i>
   <i type="logical" name="LSELFENERGY"> F  </i>
   <i type="logical" name="LSPECTRAL"> F  </i>
   <i type="logical" name="LSPECTRALGW"> F  </i>
   <i type="logical" name="LSINGLES"> F  </i>
   <i type="logical" name="LFERMIGW"> F  </i>
   <i type="logical" name="ODDONLYGW"> F  </i>
   <i type="logical" name="EVENONLYGW"> F  </i>
   <i type="int" name="NKREDLFX">     1</i>
   <i type="int" name="NKREDLFY">     1</i>
   <i type="int" name="NKREDLFZ">     1</i>
   <i type="int" name="MAXMEM">  2800</i>
   <i type="int" name="TELESCOPE">     0</i>
   <i type="int" name="NTAUPAR">    -1</i>
   <i type="int" name="NOMEGAPAR">    -1</i>
   <i name="DAMP_NEWTON">      0.80000001</i>
   <i name="LAMBDA">      1.00000000</i>
  </separator>
  <separator name="External order field" >
   <i name="OFIELD_KAPPA">      0.00000000</i>
   <v name="OFIELD_K">      0.00000000      0.00000000      0.00000000</v>
   <i name="OFIELD_Q6_NEAR">      0.00000000</i>
   <i name="OFIELD_Q6_FAR">      0.00000000</i>
   <i name="OFIELD_A">      0.00000000</i>
  </separator>
  <separator name="solvation model" >
   <i type="logical" name="LSOL"> F  </i>
  </separator>
 </parameters>
 <atominfo>
  <atoms>     257 </atoms>
  <types>       2 </types>
  <array name="atoms" >
   <dimension dim="1">ion</dimension>
   <field type="string">element</field>
   <field type="int">atomtype</field>
   <set>
    <rc><c>Al</c><c>   1</c></rc>
    <rc><c>Al</c><c>   1</c></rc>
    <rc><c>Al</c><c>   1</c></rc>
    <rc><c>Al</c><c>   1</c></rc>
    <rc><c>Al</c><c>   1</c></rc>
    <rc><c>Al</c><c>   1</c></rc>
    <rc><c>Al</c><c>   1</c></rc>
    <rc><c>Al</c><c>   1</c></rc>
    <rc><c>Al</c><c>   1</c></rc>
    <rc><c>Al</c><c>   1</c></rc>
    <rc><c>Al</c><c>   1</c></rc>
    <rc><c>Al</c><c>   1</c></rc>
    <rc><c>Al</c><c>   1</c></rc>
    <rc><c>Al</c><c>   1</c></rc>
    <rc><c>Al</c><c>   1</c></rc>
    <rc><c>Al</c><c>   1</c></rc>
    <rc><c>Al</c><c>   1</c></rc>
    <rc><c>Al</c><c>   1</c></rc>
    <rc><c>Al</c><c>   1</c></rc>
    <rc><c>Al</c><c>   1</c></rc>
    <rc><c>Al</c><c>   1</c></rc>
    <rc><c>Al</c><c>   1</c></rc>
    <rc><c>Al</c><c>   1</c></rc>
    <rc><c>Al</c><c>   1</c></rc>
    <rc><c>Al</c><c>   1</c></rc>
    <rc><c>Al</c><c>   1</c></rc>
    <rc><c>Al</c><c>   1</c></rc>
    <rc><c>Al</c><c>   1</c></rc>
    <rc><c>Al</c><c>   1</c></rc>
    <rc><c>Al</c><c>   1</c></rc>
    <rc><c>Al</c><c>   1</c></rc>
    <rc><c>Al</c><c>   1</c></rc>
    <rc><c>Al</c><c>   1</c></rc>
    <rc><c>Al</c><c>   1</c></rc>
    <rc><c>Al</c><c>   1</c></rc>
    <rc><c>Al</c><c>   1</c></rc>
    <rc><c>Al</c><c>   1</c></rc>
    <rc><c>Al</c><c>   1</c></rc>
    <rc><c>Al</c><c>   1</c></rc>
    <rc><c>Al</c><c>   1</c></rc>
    <rc><c>Al</c><c>   1</c></rc>
    <rc><c>Al</c><c>   1</c></rc>
    <rc><c>Al</c><c>   1</c></rc>
    <rc><c>Al</c><c>   1</c></rc>
    <rc><c>Al</c><c>   1</c></rc>
    <rc><c>Al</c><c>   1</c></rc>
    <rc><c>Al</c><c>   1</c></rc>
    <rc><c>Al</c><c>   1</c></rc>
    <rc><c>Al</c><c>   1</c></rc>
    <rc><c>Al</c><c>   1</c></rc>
    <rc><c>Al</c><c>   1</c></rc>
    <rc><c>Al</c><c>   1</c></rc>
    <rc><c>Al</c><c>   1</c></rc>
    <rc><c>Al</c><c>   1</c></rc>
    <rc><c>Al</c><c>   1</c></rc>
    <rc><c>Al</c><c>   1</c></rc>
    <rc><c>Al</c><c>   1</c></rc>
    <rc><c>Al</c><c>   1</c></rc>
    <rc><c>Al</c><c>   1</c></rc>
    <rc><c>Al</c><c>   1</c></rc>
    <rc><c>Al</c><c>   1</c></rc>
    <rc><c>Al</c><c>   1</c></rc>
    <rc><c>Al</c><c>   1</c></rc>
    <rc><c>Al</c><c>   1</c></rc>
    <rc><c>Al</c><c>   1</c></rc>
    <rc><c>Al</c><c>   1</c></rc>
    <rc><c>Al</c><c>   1</c></rc>
    <rc><c>Al</c><c>   1</c></rc>
    <rc><c>Al</c><c>   1</c></rc>
    <rc><c>Al</c><c>   1</c></rc>
    <rc><c>Al</c><c>   1</c></rc>
    <rc><c>Al</c><c>   1</c></rc>
    <rc><c>Al</c><c>   1</c></rc>
    <rc><c>Al</c><c>   1</c></rc>
    <rc><c>Al</c><c>   1</c></rc>
    <rc><c>Al</c><c>   1</c></rc>
    <rc><c>Al</c><c>   1</c></rc>
    <rc><c>Al</c><c>   1</c></rc>
    <rc><c>Al</c><c>   1</c></rc>
    <rc><c>Al</c><c>   1</c></rc>
    <rc><c>Al</c><c>   1</c></rc>
    <rc><c>Al</c><c>   1</c></rc>
    <rc><c>Al</c><c>   1</c></rc>
    <rc><c>Al</c><c>   1</c></rc>
    <rc><c>Al</c><c>   1</c></rc>
    <rc><c>Al</c><c>   1</c></rc>
    <rc><c>Al</c><c>   1</c></rc>
    <rc><c>Al</c><c>   1</c></rc>
    <rc><c>Al</c><c>   1</c></rc>
    <rc><c>Al</c><c>   1</c></rc>
    <rc><c>Al</c><c>   1</c></rc>
    <rc><c>Al</c><c>   1</c></rc>
    <rc><c>Al</c><c>   1</c></rc>
    <rc><c>Al</c><c>   1</c></rc>
    <rc><c>Al</c><c>   1</c></rc>
    <rc><c>Al</c><c>   1</c></rc>
    <rc><c>Al</c><c>   1</c></rc>
    <rc><c>Al</c><c>   1</c></rc>
    <rc><c>Al</c><c>   1</c></rc>
    <rc><c>Al</c><c>   1</c></rc>
    <rc><c>Al</c><c>   1</c></rc>
    <rc><c>Al</c><c>   1</c></rc>
    <rc><c>Al</c><c>   1</c></rc>
    <rc><c>Al</c><c>   1</c></rc>
    <rc><c>Al</c><c>   1</c></rc>
    <rc><c>Al</c><c>   1</c></rc>
    <rc><c>Al</c><c>   1</c></rc>
    <rc><c>Al</c><c>   1</c></rc>
    <rc><c>Al</c><c>   1</c></rc>
    <rc><c>Al</c><c>   1</c></rc>
    <rc><c>Al</c><c>   1</c></rc>
    <rc><c>Al</c><c>   1</c></rc>
    <rc><c>Al</c><c>   1</c></rc>
    <rc><c>Al</c><c>   1</c></rc>
    <rc><c>Al</c><c>   1</c></rc>
    <rc><c>Al</c><c>   1</c></rc>
    <rc><c>Al</c><c>   1</c></rc>
    <rc><c>Al</c><c>   1</c></rc>
    <rc><c>Al</c><c>   1</c></rc>
    <rc><c>Al</c><c>   1</c></rc>
    <rc><c>Al</c><c>   1</c></rc>
    <rc><c>Al</c><c>   1</c></rc>
    <rc><c>Al</c><c>   1</c></rc>
    <rc><c>Al</c><c>   1</c></rc>
    <rc><c>Al</c><c>   1</c></rc>
    <rc><c>Al</c><c>   1</c></rc>
    <rc><c>Al</c><c>   1</c></rc>
    <rc><c>Al</c><c>   1</c></rc>
    <rc><c>Al</c><c>   1</c></rc>
    <rc><c>Al</c><c>   1</c></rc>
    <rc><c>Al</c><c>   1</c></rc>
    <rc><c>Al</c><c>   1</c></rc>
    <rc><c>Al</c><c>   1</c></rc>
    <rc><c>Al</c><c>   1</c></rc>
    <rc><c>Al</c><c>   1</c></rc>
    <rc><c>Al</c><c>   1</c></rc>
    <rc><c>Al</c><c>   1</c></rc>
    <rc><c>Al</c><c>   1</c></rc>
    <rc><c>Al</c><c>   1</c></rc>
    <rc><c>Al</c><c>   1</c></rc>
    <rc><c>Al</c><c>   1</c></rc>
    <rc><c>Al</c><c>   1</c></rc>
    <rc><c>Al</c><c>   1</c></rc>
    <rc><c>Al</c><c>   1</c></rc>
    <rc><c>Al</c><c>   1</c></rc>
    <rc><c>Al</c><c>   1</c></rc>
    <rc><c>Al</c><c>   1</c></rc>
    <rc><c>Al</c><c>   1</c></rc>
    <rc><c>Al</c><c>   1</c></rc>
    <rc><c>Al</c><c>   1</c></rc>
    <rc><c>Al</c><c>   1</c></rc>
    <rc><c>Al</c><c>   1</c></rc>
    <rc><c>Al</c><c>   1</c></rc>
    <rc><c>Al</c><c>   1</c></rc>
    <rc><c>Al</c><c>   1</c></rc>
    <rc><c>Al</c><c>   1</c></rc>
    <rc><c>Al</c><c>   1</c></rc>
    <rc><c>Al</c><c>   1</c></rc>
    <rc><c>Al</c><c>   1</c></rc>
    <rc><c>Al</c><c>   1</c></rc>
    <rc><c>Al</c><c>   1</c></rc>
    <rc><c>Al</c><c>   1</c></rc>
    <rc><c>Al</c><c>   1</c></rc>
    <rc><c>Al</c><c>   1</c></rc>
    <rc><c>Al</c><c>   1</c></rc>
    <rc><c>Al</c><c>   1</c></rc>
    <rc><c>Al</c><c>   1</c></rc>
    <rc><c>Al</c><c>   1</c></rc>
    <rc><c>Al</c><c>   1</c></rc>
    <rc><c>Al</c><c>   1</c></rc>
    <rc><c>Al</c><c>   1</c></rc>
    <rc><c>Al</c><c>   1</c></rc>
    <rc><c>Al</c><c>   1</c></rc>
    <rc><c>Al</c><c>   1</c></rc>
    <rc><c>Al</c><c>   1</c></rc>
    <rc><c>Al</c><c>   1</c></rc>
    <rc><c>Al</c><c>   1</c></rc>
    <rc><c>Al</c><c>   1</c></rc>
    <rc><c>Al</c><c>   1</c></rc>
    <rc><c>Al</c><c>   1</c></rc>
    <rc><c>Al</c><c>   1</c></rc>
    <rc><c>Al</c><c>   1</c></rc>
    <rc><c>Al</c><c>   1</c></rc>
    <rc><c>Al</c><c>   1</c></rc>
    <rc><c>Al</c><c>   1</c></rc>
    <rc><c>Al</c><c>   1</c></rc>
    <rc><c>Al</c><c>   1</c></rc>
    <rc><c>Al</c><c>   1</c></rc>
    <rc><c>Al</c><c>   1</c></rc>
    <rc><c>Al</c><c>   1</c></rc>
    <rc><c>Al</c><c>   1</c></rc>
    <rc><c>Al</c><c>   1</c></rc>
    <rc><c>Al</c><c>   1</c></rc>
    <rc><c>Al</c><c>   1</c></rc>
    <rc><c>Al</c><c>   1</c></rc>
    <rc><c>Al</c><c>   1</c></rc>
    <rc><c>Al</c><c>   1</c></rc>
    <rc><c>Al</c><c>   1</c></rc>
    <rc><c>Al</c><c>   1</c></rc>
    <rc><c>Al</c><c>   1</c></rc>
    <rc><c>Al</c><c>   1</c></rc>
    <rc><c>Al</c><c>   1</c></rc>
    <rc><c>Al</c><c>   1</c></rc>
    <rc><c>Al</c><c>   1</c></rc>
    <rc><c>Al</c><c>   1</c></rc>
    <rc><c>Al</c><c>   1</c></rc>
    <rc><c>Al</c><c>   1</c></rc>
    <rc><c>Al</c><c>   1</c></rc>
    <rc><c>Al</c><c>   1</c></rc>
    <rc><c>Al</c><c>   1</c></rc>
    <rc><c>Al</c><c>   1</c></rc>
    <rc><c>Al</c><c>   1</c></rc>
    <rc><c>Al</c><c>   1</c></rc>
    <rc><c>Al</c><c>   1</c></rc>
    <rc><c>Al</c><c>   1</c></rc>
    <rc><c>Al</c><c>   1</c></rc>
    <rc><c>Al</c><c>   1</c></rc>
    <rc><c>Al</c><c>   1</c></rc>
    <rc><c>Al</c><c>   1</c></rc>
    <rc><c>Al</c><c>   1</c></rc>
    <rc><c>Al</c><c>   1</c></rc>
    <rc><c>Al</c><c>   1</c></rc>
    <rc><c>Al</c><c>   1</c></rc>
    <rc><c>Al</c><c>   1</c></rc>
    <rc><c>Al</c><c>   1</c></rc>
    <rc><c>Al</c><c>   1</c></rc>
    <rc><c>Al</c><c>   1</c></rc>
    <rc><c>Al</c><c>   1</c></rc>
    <rc><c>Al</c><c>   1</c></rc>
    <rc><c>Al</c><c>   1</c></rc>
    <rc><c>Al</c><c>   1</c></rc>
    <rc><c>Al</c><c>   1</c></rc>
    <rc><c>Al</c><c>   1</c></rc>
    <rc><c>Al</c><c>   1</c></rc>
    <rc><c>Al</c><c>   1</c></rc>
    <rc><c>Al</c><c>   1</c></rc>
    <rc><c>Al</c><c>   1</c></rc>
    <rc><c>Al</c><c>   1</c></rc>
    <rc><c>Al</c><c>   1</c></rc>
    <rc><c>Al</c><c>   1</c></rc>
    <rc><c>Al</c><c>   1</c></rc>
    <rc><c>Al</c><c>   1</c></rc>
    <rc><c>Al</c><c>   1</c></rc>
    <rc><c>Al</c><c>   1</c></rc>
    <rc><c>Al</c><c>   1</c></rc>
    <rc><c>Al</c><c>   1</c></rc>
    <rc><c>Al</c><c>   1</c></rc>
    <rc><c>Al</c><c>   1</c></rc>
    <rc><c>Al</c><c>   1</c></rc>
    <rc><c>Al</c><c>   1</c></rc>
    <rc><c>Al</c><c>   1</c></rc>
    <rc><c>Al</c><c>   1</c></rc>
    <rc><c>Al</c><c>   1</c></rc>
    <rc><c>Al</c><c>   1</c></rc>
    <rc><c>Al</c><c>   1</c></rc>
    <rc><c>Al</c><c>   1</c></rc>
    <rc><c>O </c><c>   2</c></rc>
   </set>
  </array>
  <array name="atomtypes" >
   <dimension dim="1">type</dimension>
   <field type="int">atomspertype</field>
   <field type="string">element</field>
   <field>mass</field>
   <field>valence</field>
   <field type="string">pseudopotential</field>
   <set>
    <rc><c> 256</c><c>Al</c><c>     26.98200000</c><c>      3.00000000</c><c>  PAW Al_GW 19Mar2012                   </c></rc>
    <rc><c>   1</c><c>O </c><c>     16.00000000</c><c>      6.00000000</c><c>  PAW O_GW 19Mar2012                    </c></rc>
   </set>
  </array>
 </atominfo>
 <structure name="initialpos" >
  <crystal>
   <varray name="basis" >
    <v>      16.19800000       0.00000000       0.00000000 </v>
    <v>       0.00000000      16.19800000       0.00000000 </v>
    <v>       0.00000000       0.00000000      16.19800000 </v>
   </varray>
   <i name="volume">   4249.95355439 </i>
   <varray name="rec_basis" >
    <v>       0.06173602       0.00000000       0.00000000 </v>
    <v>       0.00000000       0.06173602       0.00000000 </v>
    <v>       0.00000000       0.00000000       0.06173602 </v>
   </varray>
  </crystal>
  <varray name="positions" >
   <v>       0.00000000       0.00000000       0.00000000 </v>
   <v>       0.00000000       0.12500000       0.12500000 </v>
   <v>       0.12500000       0.00000000       0.12500000 </v>
   <v>       0.12500000       0.12500000       0.00000000 </v>
   <v>       0.00000000       0.00000000       0.25000000 </v>
   <v>       0.00000000       0.12500000       0.37500000 </v>
   <v>       0.12500000       0.00000000       0.37500000 </v>
   <v>       0.12500000       0.12500000       0.25000000 </v>
   <v>       0.00000000       0.00000000       0.50000000 </v>
   <v>       0.00000000       0.12500000       0.62500000 </v>
   <v>       0.12500000       0.00000000       0.62500000 </v>
   <v>       0.12500000       0.12500000       0.50000000 </v>
   <v>       0.00000000       0.00000000       0.75000000 </v>
   <v>       0.00000000       0.12500000       0.87500000 </v>
   <v>       0.12500000       0.00000000       0.87500000 </v>
   <v>       0.12500000       0.12500000       0.75000000 </v>
   <v>       0.00000000       0.25000000       0.00000000 </v>
   <v>       0.00000000       0.37500000       0.12500000 </v>
   <v>       0.12500000       0.25000000       0.12500000 </v>
   <v>       0.12500000       0.37500000       0.00000000 </v>
   <v>       0.00000000       0.25000000       0.25000000 </v>
   <v>       0.00000000       0.37500000       0.37500000 </v>
   <v>       0.12500000       0.25000000       0.37500000 </v>
   <v>       0.12500000       0.37500000       0.25000000 </v>
   <v>       0.00000000       0.25000000       0.50000000 </v>
   <v>       0.00000000       0.37500000       0.62500000 </v>
   <v>       0.12500000       0.25000000       0.62500000 </v>
   <v>       0.12500000       0.37500000       0.50000000 </v>
   <v>       0.00000000       0.25000000       0.75000000 </v>
   <v>       0.00000000       0.37500000       0.87500000 </v>
   <v>       0.12500000       0.25000000       0.87500000 </v>
   <v>       0.12500000       0.37500000       0.75000000 </v>
   <v>       0.00000000       0.50000000       0.00000000 </v>
   <v>       0.00000000       0.62500000       0.12500000 </v>
   <v>       0.12500000       0.50000000       0.12500000 </v>
   <v>       0.12500000       0.62500000       0.00000000 </v>
   <v>       0.00000000       0.50000000       0.25000000 </v>
   <v>       0.00000000       0.62500000       0.37500000 </v>
   <v>       0.12500000       0.50000000       0.37500000 </v>
   <v>       0.12500000       0.62500000       0.25000000 </v>
   <v>       0.00000000       0.50000000       0.50000000 </v>
   <v>       0.00000000       0.62500000       0.62500000 </v>
   <v>       0.12500000       0.50000000       0.62500000 </v>
   <v>       0.12500000       0.62500000       0.50000000 </v>
   <v>       0.00000000       0.50000000       0.75000000 </v>
   <v>       0.00000000       0.62500000       0.87500000 </v>
   <v>       0.12500000       0.50000000       0.87500000 </v>
   <v>       0.12500000       0.62500000       0.75000000 </v>
   <v>       0.00000000       0.75000000       0.00000000 </v>
   <v>       0.00000000       0.87500000       0.12500000 </v>
   <v>       0.12500000       0.75000000       0.12500000 </v>
   <v>       0.12500000       0.87500000       0.00000000 </v>
   <v>       0.00000000       0.75000000       0.25000000 </v>
   <v>       0.00000000       0.87500000       0.37500000 </v>
   <v>       0.12500000       0.75000000       0.37500000 </v>
   <v>       0.12500000       0.87500000       0.25000000 </v>
   <v>       0.00000000       0.75000000       0.50000000 </v>
   <v>       0.00000000       0.87500000       0.62500000 </v>
   <v>       0.12500000       0.75000000       0.62500000 </v>
   <v>       0.12500000       0.87500000       0.50000000 </v>
   <v>       0.00000000       0.75000000       0.75000000 </v>
   <v>       0.00000000       0.87500000       0.87500000 </v>
   <v>       0.12500000       0.75000000       0.87500000 </v>
   <v>       0.12500000       0.87500000       0.75000000 </v>
   <v>       0.25000000       0.00000000       0.00000000 </v>
   <v>       0.25000000       0.12500000       0.12500000 </v>
   <v>       0.37500000       0.00000000       0.12500000 </v>
   <v>       0.37500000       0.12500000       0.00000000 </v>
   <v>       0.25000000       0.00000000       0.25000000 </v>
   <v>       0.25000000       0.12500000       0.37500000 </v>
   <v>       0.37500000       0.00000000       0.37500000 </v>
   <v>       0.37500000       0.12500000       0.25000000 </v>
   <v>       0.25000000       0.00000000       0.50000000 </v>
   <v>       0.25000000       0.12500000       0.62500000 </v>
   <v>       0.37500000       0.00000000       0.62500000 </v>
   <v>       0.37500000       0.12500000       0.50000000 </v>
   <v>       0.25000000       0.00000000       0.75000000 </v>
   <v>       0.25000000       0.12500000       0.87500000 </v>
   <v>       0.37500000       0.00000000       0.87500000 </v>
   <v>       0.37500000       0.12500000       0.75000000 </v>
   <v>       0.25000000       0.25000000       0.00000000 </v>
   <v>       0.25000000       0.37500000       0.12500000 </v>
   <v>       0.37500000       0.25000000       0.12500000 </v>
   <v>       0.37500000       0.37500000       0.00000000 </v>
   <v>       0.25000000       0.25000000       0.25000000 </v>
   <v>       0.25000000       0.37500000       0.37500000 </v>
   <v>       0.37500000       0.25000000       0.37500000 </v>
   <v>       0.37500000       0.37500000       0.25000000 </v>
   <v>       0.25000000       0.25000000       0.50000000 </v>
   <v>       0.25000000       0.37500000       0.62500000 </v>
   <v>       0.37500000       0.25000000       0.62500000 </v>
   <v>       0.37500000       0.37500000       0.50000000 </v>
   <v>       0.25000000       0.25000000       0.75000000 </v>
   <v>       0.25000000       0.37500000       0.87500000 </v>
   <v>       0.37500000       0.25000000       0.87500000 </v>
   <v>       0.37500000       0.37500000       0.75000000 </v>
   <v>       0.25000000       0.50000000       0.00000000 </v>
   <v>       0.25000000       0.62500000       0.12500000 </v>
   <v>       0.37500000       0.50000000       0.12500000 </v>
   <v>       0.37500000       0.62500000       0.00000000 </v>
   <v>       0.25000000       0.50000000       0.25000000 </v>
   <v>       0.25000000       0.62500000       0.37500000 </v>
   <v>       0.37500000       0.50000000       0.37500000 </v>
   <v>       0.37500000       0.62500000       0.25000000 </v>
   <v>       0.25000000       0.50000000       0.50000000 </v>
   <v>       0.25000000       0.62500000       0.62500000 </v>
   <v>       0.37500000       0.50000000       0.62500000 </v>
   <v>       0.37500000       0.62500000       0.50000000 </v>
   <v>       0.25000000       0.50000000       0.75000000 </v>
   <v>       0.25000000       0.62500000       0.87500000 </v>
   <v>       0.37500000       0.50000000       0.87500000 </v>
   <v>       0.37500000       0.62500000       0.75000000 </v>
   <v>       0.25000000       0.75000000       0.00000000 </v>
   <v>       0.25000000       0.87500000       0.12500000 </v>
   <v>       0.37500000       0.75000000       0.12500000 </v>
   <v>       0.37500000       0.87500000       0.00000000 </v>
   <v>       0.25000000       0.75000000       0.25000000 </v>
   <v>       0.25000000       0.87500000       0.37500000 </v>
   <v>       0.37500000       0.75000000       0.37500000 </v>
   <v>       0.37500000       0.87500000       0.25000000 </v>
   <v>       0.25000000       0.75000000       0.50000000 </v>
   <v>       0.25000000       0.87500000       0.62500000 </v>
   <v>       0.37500000       0.75000000       0.62500000 </v>
   <v>       0.37500000       0.87500000       0.50000000 </v>
   <v>       0.25000000       0.75000000       0.75000000 </v>
   <v>       0.25000000       0.87500000       0.87500000 </v>
   <v>       0.37500000       0.75000000       0.87500000 </v>
   <v>       0.37500000       0.87500000       0.75000000 </v>
   <v>       0.50000000       0.00000000       0.00000000 </v>
   <v>       0.50000000       0.12500000       0.12500000 </v>
   <v>       0.62500000       0.00000000       0.12500000 </v>
   <v>       0.62500000       0.12500000       0.00000000 </v>
   <v>       0.50000000       0.00000000       0.25000000 </v>
   <v>       0.50000000       0.12500000       0.37500000 </v>
   <v>       0.62500000       0.00000000       0.37500000 </v>
   <v>       0.62500000       0.12500000       0.25000000 </v>
   <v>       0.50000000       0.00000000       0.50000000 </v>
   <v>       0.50000000       0.12500000       0.62500000 </v>
   <v>       0.62500000       0.00000000       0.62500000 </v>
   <v>       0.62500000       0.12500000       0.50000000 </v>
   <v>       0.50000000       0.00000000       0.75000000 </v>
   <v>       0.50000000       0.12500000       0.87500000 </v>
   <v>       0.62500000       0.00000000       0.87500000 </v>
   <v>       0.62500000       0.12500000       0.75000000 </v>
   <v>       0.50000000       0.25000000       0.00000000 </v>
   <v>       0.50000000       0.37500000       0.12500000 </v>
   <v>       0.62500000       0.25000000       0.12500000 </v>
   <v>       0.62500000       0.37500000       0.00000000 </v>
   <v>       0.50000000       0.25000000       0.25000000 </v>
   <v>       0.50000000       0.37500000       0.37500000 </v>
   <v>       0.62500000       0.25000000       0.37500000 </v>
   <v>       0.62500000       0.37500000       0.25000000 </v>
   <v>       0.50000000       0.25000000       0.50000000 </v>
   <v>       0.50000000       0.37500000       0.62500000 </v>
   <v>       0.62500000       0.25000000       0.62500000 </v>
   <v>       0.62500000       0.37500000       0.50000000 </v>
   <v>       0.50000000       0.25000000       0.75000000 </v>
   <v>       0.50000000       0.37500000       0.87500000 </v>
   <v>       0.62500000       0.25000000       0.87500000 </v>
   <v>       0.62500000       0.37500000       0.75000000 </v>
   <v>       0.50000000       0.50000000       0.00000000 </v>
   <v>       0.50000000       0.62500000       0.12500000 </v>
   <v>       0.62500000       0.50000000       0.12500000 </v>
   <v>       0.62500000       0.62500000       0.00000000 </v>
   <v>       0.50000000       0.50000000       0.25000000 </v>
   <v>       0.50000000       0.62500000       0.37500000 </v>
   <v>       0.62500000       0.50000000       0.37500000 </v>
   <v>       0.62500000       0.62500000       0.25000000 </v>
   <v>       0.50000000       0.50000000       0.50000000 </v>
   <v>       0.50000000       0.62500000       0.62500000 </v>
   <v>       0.62500000       0.50000000       0.62500000 </v>
   <v>       0.62500000       0.62500000       0.50000000 </v>
   <v>       0.50000000       0.50000000       0.75000000 </v>
   <v>       0.50000000       0.62500000       0.87500000 </v>
   <v>       0.62500000       0.50000000       0.87500000 </v>
   <v>       0.62500000       0.62500000       0.75000000 </v>
   <v>       0.50000000       0.75000000       0.00000000 </v>
   <v>       0.50000000       0.87500000       0.12500000 </v>
   <v>       0.62500000       0.75000000       0.12500000 </v>
   <v>       0.62500000       0.87500000       0.00000000 </v>
   <v>       0.50000000       0.75000000       0.25000000 </v>
   <v>       0.50000000       0.87500000       0.37500000 </v>
   <v>       0.62500000       0.75000000       0.37500000 </v>
   <v>       0.62500000       0.87500000       0.25000000 </v>
   <v>       0.50000000       0.75000000       0.50000000 </v>
   <v>       0.50000000       0.87500000       0.62500000 </v>
   <v>       0.62500000       0.75000000       0.62500000 </v>
   <v>       0.62500000       0.87500000       0.50000000 </v>
   <v>       0.50000000       0.75000000       0.75000000 </v>
   <v>       0.50000000       0.87500000       0.87500000 </v>
   <v>       0.62500000       0.75000000       0.87500000 </v>
   <v>       0.62500000       0.87500000       0.75000000 </v>
   <v>       0.75000000       0.00000000       0.00000000 </v>
   <v>       0.75000000       0.12500000       0.12500000 </v>
   <v>       0.87500000       0.00000000       0.12500000 </v>
   <v>       0.87500000       0.12500000       0.00000000 </v>
   <v>       0.75000000       0.00000000       0.25000000 </v>
   <v>       0.75000000       0.12500000       0.37500000 </v>
   <v>       0.87500000       0.00000000       0.37500000 </v>
   <v>       0.87500000       0.12500000       0.25000000 </v>
   <v>       0.75000000       0.00000000       0.50000000 </v>
   <v>       0.75000000       0.12500000       0.62500000 </v>
   <v>       0.87500000       0.00000000       0.62500000 </v>
   <v>       0.87500000       0.12500000       0.50000000 </v>
   <v>       0.75000000       0.00000000       0.75000000 </v>
   <v>       0.75000000       0.12500000       0.87500000 </v>
   <v>       0.87500000       0.00000000       0.87500000 </v>
   <v>       0.87500000       0.12500000       0.75000000 </v>
   <v>       0.75000000       0.25000000       0.00000000 </v>
   <v>       0.75000000       0.37500000       0.12500000 </v>
   <v>       0.87500000       0.25000000       0.12500000 </v>
   <v>       0.87500000       0.37500000       0.00000000 </v>
   <v>       0.75000000       0.25000000       0.25000000 </v>
   <v>       0.75000000       0.37500000       0.37500000 </v>
   <v>       0.87500000       0.25000000       0.37500000 </v>
   <v>       0.87500000       0.37500000       0.25000000 </v>
   <v>       0.75000000       0.25000000       0.50000000 </v>
   <v>       0.75000000       0.37500000       0.62500000 </v>
   <v>       0.87500000       0.25000000       0.62500000 </v>
   <v>       0.87500000       0.37500000       0.50000000 </v>
   <v>       0.75000000       0.25000000       0.75000000 </v>
   <v>       0.75000000       0.37500000       0.87500000 </v>
   <v>       0.87500000       0.25000000       0.87500000 </v>
   <v>       0.87500000       0.37500000       0.75000000 </v>
   <v>       0.75000000       0.50000000       0.00000000 </v>
   <v>       0.75000000       0.62500000       0.12500000 </v>
   <v>       0.87500000       0.50000000       0.12500000 </v>
   <v>       0.87500000       0.62500000       0.00000000 </v>
   <v>       0.75000000       0.50000000       0.25000000 </v>
   <v>       0.75000000       0.62500000       0.37500000 </v>
   <v>       0.87500000       0.50000000       0.37500000 </v>
   <v>       0.87500000       0.62500000       0.25000000 </v>
   <v>       0.75000000       0.50000000       0.50000000 </v>
   <v>       0.75000000       0.62500000       0.62500000 </v>
   <v>       0.87500000       0.50000000       0.62500000 </v>
   <v>       0.87500000       0.62500000       0.50000000 </v>
   <v>       0.75000000       0.50000000       0.75000000 </v>
   <v>       0.75000000       0.62500000       0.87500000 </v>
   <v>       0.87500000       0.50000000       0.87500000 </v>
   <v>       0.87500000       0.62500000       0.75000000 </v>
   <v>       0.75000000       0.75000000       0.00000000 </v>
   <v>       0.75000000       0.87500000       0.12500000 </v>
   <v>       0.87500000       0.75000000       0.12500000 </v>
   <v>       0.87500000       0.87500000       0.00000000 </v>
   <v>       0.75000000       0.75000000       0.25000000 </v>
   <v>       0.75000000       0.87500000       0.37500000 </v>
   <v>       0.87500000       0.75000000       0.37500000 </v>
   <v>       0.87500000       0.87500000       0.25000000 </v>
   <v>       0.75000000       0.75000000       0.50000000 </v>
   <v>       0.75000000       0.87500000       0.62500000 </v>
   <v>       0.87500000       0.75000000       0.62500000 </v>
   <v>       0.87500000       0.87500000       0.50000000 </v>
   <v>       0.75000000       0.75000000       0.75000000 </v>
   <v>       0.75000000       0.87500000       0.87500000 </v>
   <v>       0.87500000       0.75000000       0.87500000 </v>
   <v>       0.87500000       0.87500000       0.75000000 </v>
   <v>       0.12500000       0.00000000       0.00000000 </v>
  </varray>
 </structure>
 <calculation>
  <scstep>
   <time name="dav">    6.60    6.61</time>
   <time name="total">    7.06    7.11</time>
   <energy>
    <i name="alphaZ">    929.90132602 </i>
    <i name="ewald"> -18896.79715754 </i>
    <i name="hartreedc">   -350.03168651 </i>
    <i name="XCdc">  -6692.67285205 </i>
    <i name="pawpsdc">  17296.39174603 </i>
    <i name="pawaedc">  -9115.22705983 </i>
    <i name="eentropy">     -0.05526361 </i>
    <i name="bandstr">   4006.29035988 </i>
    <i name="atom">  14137.74225596 </i>
    <i name="e_fr_energy">   1315.54166837 </i>
    <i name="e_wo_entrp">   1315.59693198 </i>
    <i name="e_0_energy">   1315.56930017 </i>
   </energy>
  </scstep>
  <scstep>
   <time name="dav">    8.59    8.59</time>
   <time name="total">    8.59    8.59</time>
   <energy>
    <i name="e_fr_energy">   -817.51006950 </i>
    <i name="e_wo_entrp">   -817.41537864 </i>
    <i name="e_0_energy">   -817.46272407 </i>
   </energy>
  </scstep>
  <scstep>
   <time name="dav">    7.87    7.87</time>
   <time name="total">    7.87    7.87</time>
   <energy>
    <i name="e_fr_energy">   -967.47251040 </i>
    <i name="e_wo_entrp">   -967.30787336 </i>
    <i name="e_0_energy">   -967.39019188 </i>
   </energy>
  </scstep>
  <scstep>
   <time name="dav">    8.42    8.42</time>
   <time name="total">    8.42    8.42</time>
   <energy>
    <i name="e_fr_energy">   -974.95724691 </i>
    <i name="e_wo_entrp">   -974.77203695 </i>
    <i name="e_0_energy">   -974.86464193 </i>
   </energy>
  </scstep>
  <scstep>
   <time name="dav">    8.09    8.09</time>
   <time name="total">    8.77    8.78</time>
   <energy>
    <i name="e_fr_energy">   -975.11557924 </i>
    <i name="e_wo_entrp">   -974.93039627 </i>
    <i name="e_0_energy">   -975.02298776 </i>
   </energy>
  </scstep>
  <scstep>
   <time name="dav">    9.17    9.17</time>
   <time name="total">   10.31   10.31</time>
   <energy>
    <i name="e_fr_energy">   -970.30142607 </i>
    <i name="e_wo_entrp">   -970.11137973 </i>
    <i name="e_0_energy">   -970.20640290 </i>
   </energy>
  </scstep>
  <scstep>
   <time name="dav">    7.84    7.84</time>
   <time name="total">    8.97    8.97</time>
   <energy>
    <i name="e_fr_energy">   -968.74196681 </i>
    <i name="e_wo_entrp">   -968.57172025 </i>
    <i name="e_0_energy">   -968.65684353 </i>
   </energy>
  </scstep>
  <scstep>
   <time name="dav">    7.65    7.65</time>
   <time name="total">    8.78    8.79</time>
   <energy>
    <i name="e_fr_energy">   -968.32760289 </i>
    <i name="e_wo_entrp">   -968.15431127 </i>
    <i name="e_0_energy">   -968.24095708 </i>
   </energy>
  </scstep>
  <scstep>
   <time name="dav">    7.80    7.80</time>
   <time name="total">    8.93    8.94</time>
   <energy>
    <i name="e_fr_energy">   -968.00881719 </i>
    <i name="e_wo_entrp">   -967.83240356 </i>
    <i name="e_0_energy">   -967.92061037 </i>
   </energy>
  </scstep>
  <scstep>
   <time name="dav">    7.67    7.67</time>
   <time name="total">    8.80    8.80</time>
   <energy>
    <i name="e_fr_energy">   -968.01128757 </i>
    <i name="e_wo_entrp">   -967.83537802 </i>
    <i name="e_0_energy">   -967.92333279 </i>
   </energy>
  </scstep>
  <scstep>
   <time name="dav">    8.80    8.81</time>
   <time name="total">    9.94    9.94</time>
   <energy>
    <i name="e_fr_energy">   -967.99108676 </i>
    <i name="e_wo_entrp">   -967.81425325 </i>
    <i name="e_0_energy">   -967.90267001 </i>
   </energy>
  </scstep>
  <scstep>
   <time name="dav">    7.66    7.66</time>
   <time name="total">    8.82    8.82</time>
   <energy>
    <i name="e_fr_energy">   -967.99717452 </i>
    <i name="e_wo_entrp">   -967.82022178 </i>
    <i name="e_0_energy">   -967.90869815 </i>
   </energy>
  </scstep>
  <scstep>
   <time name="dav">    7.85    7.86</time>
   <time name="total">    9.02    9.02</time>
   <energy>
    <i name="e_fr_energy">   -967.99651509 </i>
    <i name="e_wo_entrp">   -967.81962785 </i>
    <i name="e_0_energy">   -967.90807147 </i>
   </energy>
  </scstep>
  <scstep>
   <time name="dav">    8.07    8.07</time>
   <time name="total">    9.23    9.23</time>
   <energy>
    <i name="e_fr_energy">   -967.99595714 </i>
    <i name="e_wo_entrp">   -967.81912906 </i>
    <i name="e_0_energy">   -967.90754310 </i>
   </energy>
  </scstep>
  <scstep>
   <time name="dav">    7.49    7.50</time>
   <time name="total">    8.65    8.66</time>
   <energy>
    <i name="e_fr_energy">   -967.99606473 </i>
    <i name="e_wo_entrp">   -967.81921918 </i>
    <i name="e_0_energy">   -967.90764195 </i>
   </energy>
  </scstep>
  <scstep>
   <time name="dav">    8.59    8.59</time>
   <time name="total">    9.78    9.78</time>
   <energy>
    <i name="e_fr_energy">   -967.99597794 </i>
    <i name="e_wo_entrp">   -967.81916642 </i>
    <i name="e_0_energy">   -967.90757218 </i>
   </energy>
  </scstep>
  <scstep>
   <time name="dav">    7.50    7.50</time>
   <time name="total">    8.67    8.67</time>
   <energy>
    <i name="e_fr_energy">   -967.99602291 </i>
    <i name="e_wo_entrp">   -967.81922201 </i>
    <i name="e_0_energy">   -967.90762246 </i>
   </energy>
  </scstep>
  <scstep>
   <time name="dav">    7.40    7.40</time>
   <time name="total">    8.58    8.58</time>
   <energy>
    <i name="e_fr_energy">   -967.99601690 </i>
    <i name="e_wo_entrp">   -967.81921106 </i>
    <i name="e_0_energy">   -967.90761398 </i>
   </energy>
  </scstep>
  <scstep>
   <time name="dav">    8.01    8.01</time>
   <time name="total">    9.21    9.21</time>
   <energy>
    <i name="e_fr_energy">   -967.99600851 </i>
    <i name="e_wo_entrp">   -967.81919086 </i>
    <i name="e_0_energy">   -967.90759968 </i>
   </energy>
  </scstep>
  <scstep>
   <time name="dav">    6.77    6.77</time>
   <time name="total">    7.96    7.96</time>
   <energy>
    <i name="e_fr_energy">   -967.99600934 </i>
    <i name="e_wo_entrp">   -967.81919756 </i>
    <i name="e_0_energy">   -967.90760345 </i>
   </energy>
  </scstep>
  <scstep>
   <time name="dav">    6.05    6.05</time>
   <time name="total">    7.26    7.26</time>
   <energy>
    <i name="e_fr_energy">   -967.99600855 </i>
    <i name="e_wo_entrp">   -967.81919557 </i>
    <i name="e_0_energy">   -967.90760206 </i>
   </energy>
  </scstep>
  <scstep>
   <time name="dav">    5.33    5.33</time>
   <time name="total">    6.54    6.54</time>
   <energy>
    <i name="e_fr_energy">   -967.99600834 </i>
    <i name="e_wo_entrp">   -967.81919411 </i>
    <i name="e_0_energy">   -967.90760123 </i>
   </energy>
  </scstep>
  <scstep>
   <time name="dav">    5.48    5.48</time>
   <time name="total">    5.94    5.94</time>
   <energy>
    <i name="alphaZ">    929.90132602 </i>
    <i name="ewald"> -18896.79715754 </i>
    <i name="hartreedc">   -365.30141945 </i>
    <i name="XCdc">  -6663.29369126 </i>
    <i name="pawpsdc">  22963.86122767 </i>
    <i name="pawaedc"> -14786.98159261 </i>
    <i name="eentropy">     -0.17681527 </i>
    <i name="bandstr">   1713.04985808 </i>
    <i name="atom">  14137.74225596 </i>
    <i name="e_fr_energy">   -967.99600839 </i>
    <i name="e_wo_entrp">   -967.81919312 </i>
    <i name="e_0_energy">   -967.90760075 </i>
   </energy>
  </scstep>
  <structure>
   <crystal>
    <varray name="basis" >
     <v>      16.19800000       0.00000000       0.00000000 </v>
     <v>       0.00000000      16.19800000       0.00000000 </v>
     <v>       0.00000000       0.00000000      16.19800000 </v>
    </varray>
    <i name="volume">   4249.95355439 </i>
    <varray name="rec_basis" >
     <v>       0.06173602       0.00000000       0.00000000 </v>
     <v>       0.00000000       0.06173602       0.00000000 </v>
     <v>       0.00000000       0.00000000       0.06173602 </v>
    </varray>
   </crystal>
   <varray name="positions" >
    <v>       0.00000000       0.00000000       0.00000000 </v>
    <v>       0.00000000       0.12500000       0.12500000 </v>
    <v>       0.12500000       0.00000000       0.12500000 </v>
    <v>       0.12500000       0.12500000       0.00000000 </v>
    <v>       0.00000000       0.00000000       0.25000000 </v>
    <v>       0.00000000       0.12500000       0.37500000 </v>
    <v>       0.12500000       0.00000000       0.37500000 </v>
    <v>       0.12500000       0.12500000       0.25000000 </v>
    <v>       0.00000000       0.00000000       0.50000000 </v>
    <v>       0.00000000       0.12500000       0.62500000 </v>
    <v>       0.12500000       0.00000000       0.62500000 </v>
[...]
       <r>     5.0891    97.0337   617.6009 </r>
       <r>     5.1759   123.5729   628.3296 </r>
       <r>     5.2627    67.8322   634.2189 </r>
       <r>     5.3496    42.0848   637.8727 </r>
       <r>     5.4364    61.1856   643.1849 </r>
       <r>     5.5232    82.0521   650.3087 </r>
       <r>     5.6100   124.8695   661.1500 </r>
       <r>     5.6968   137.6853   673.1039 </r>
       <r>     5.7837   156.1577   686.6617 </r>
       <r>     5.8705   107.7640   696.0178 </r>
       <r>     5.9573    83.7580   703.2897 </r>
       <r>     6.0441    81.6385   710.3777 </r>
       <r>     6.1309   142.5656   722.7553 </r>
       <r>     6.2178   123.6349   733.4894 </r>
       <r>     6.3046    76.2388   740.1085 </r>
       <r>     6.3914    84.5055   747.4454 </r>
       <r>     6.4782    25.0107   749.6168 </r>
       <r>     6.5650    78.3139   756.4161 </r>
       <r>     6.6519    98.6799   764.9836 </r>
       <r>     6.7387    30.8577   767.6626 </r>
       <r>     6.8255    88.6370   775.3582 </r>
       <r>     6.9123   122.9876   786.0361 </r>
       <r>     6.9991   120.8319   796.5268 </r>
       <r>     7.0860   161.5645   810.5539 </r>
       <r>     7.1728   193.3596   827.3416 </r>
       <r>     7.2596    81.7666   834.4406 </r>
       <r>     7.3464    99.8846   843.1127 </r>
       <r>     7.4332    83.1069   850.3281 </r>
       <r>     7.5201    77.8558   857.0876 </r>
       <r>     7.6069   258.6607   879.5447 </r>
       <r>     7.6937   107.3091   888.8614 </r>
       <r>     7.7805   131.2726   900.2586 </r>
       <r>     7.8674   136.8725   912.1420 </r>
       <r>     7.9542    89.5636   919.9179 </r>
       <r>     8.0410    32.8687   922.7716 </r>
       <r>     8.1278    81.0050   929.8045 </r>
       <r>     8.2146   141.8868   942.1233 </r>
       <r>     8.3015   104.7179   951.2150 </r>
       <r>     8.3883    37.1147   954.4373 </r>
       <r>     8.4751    46.9318   958.5119 </r>
       <r>     8.5619   151.3949   971.6562 </r>
       <r>     8.6487   136.4427   983.5022 </r>
       <r>     8.7356    83.9140   990.7877 </r>
       <r>     8.8224   100.4341   999.5075 </r>
       <r>     8.9092    81.3463  1006.5700 </r>
       <r>     8.9960   132.5473  1018.0779 </r>
       <r>     9.0828    98.3106  1026.6133 </r>
       <r>     9.1697    52.2091  1031.1461 </r>
       <r>     9.2565     4.8609  1031.5682 </r>
       <r>     9.3433     4.7741  1031.9827 </r>
       <r>     9.4301     0.1997  1032.0000 </r>
       <r>     9.5169     0.0001  1032.0000 </r>
       <r>     9.6038     0.0000  1032.0000 </r>
       <r>     9.6906     0.0000  1032.0000 </r>
       <r>     9.7774     0.0000  1032.0000 </r>
       <r>     9.8642     0.0000  1032.0000 </r>
       <r>     9.9511     0.0000  1032.0000 </r>
       <r>    10.0379     0.0000  1032.0000 </r>
       <r>    10.1247     0.0000  1032.0000 </r>
       <r>    10.2115     0.0000  1032.0000 </r>
       <r>    10.2983     0.0000  1032.0000 </r>
       <r>    10.3852     0.0000  1032.0000 </r>
       <r>    10.4720     0.0000  1032.0000 </r>
      </set>
     </set>
    </array>
   </total>
  </dos>
 </calculation>
 <structure name="finalpos" >
  <crystal>
   <varray name="basis" >
    <v>      16.19800000       0.00000000       0.00000000 </v>
    <v>       0.00000000      16.19800000       0.00000000 </v>
    <v>       0.00000000       0.00000000      16.19800000 </v>
   </varray>
   <i name="volume">   4249.95355439 </i>
   <varray name="rec_basis" >
    <v>       0.06173602       0.00000000       0.00000000 </v>
    <v>       0.00000000       0.06173602       0.00000000 </v>
    <v>       0.00000000       0.00000000       0.06173602 </v>
   </varray>
  </crystal>
  <varray name="positions" >
   <v>      -0.00503755      -0.00000000       0.00000000 </v>
   <v>       0.00086720       0.12413280       0.12413280 </v>
   <v>       0.12500000      -0.00000000       0.13003755 </v>
   <v>       0.12500000       0.13003755       0.00000000 </v>
   <v>      -0.00056454      -0.00000000       0.25104561 </v>
   <v>       0.00005716       0.12494284       0.37527205 </v>
   <v>       0.12500000      -0.00000000       0.37440905 </v>
   <v>       0.12500000       0.12556454       0.25104561 </v>
   <v>       0.00026466      -0.00000000       0.50000000 </v>
   <v>       0.00005716       0.12494284       0.62472795 </v>
   <v>       0.12500000      -0.00000000       0.62559095 </v>
   <v>       0.12500000       0.12473534       0.50000000 </v>
   <v>      -0.00056454      -0.00000000       0.74895439 </v>
   <v>       0.00086720       0.12413280       0.87586720 </v>
   <v>       0.12500000      -0.00000000       0.86996245 </v>
   <v>       0.12500000       0.12556454       0.74895439 </v>
   <v>      -0.00056454       0.25104561       0.00000000 </v>
   <v>       0.00005716       0.37527205       0.12494284 </v>
   <v>       0.12500000       0.25104561       0.12556454 </v>
   <v>       0.12500000       0.37440905       0.00000000 </v>
   <v>       0.00010650       0.24953185       0.24953185 </v>
   <v>      -0.00005357       0.37483856       0.37483856 </v>
   <v>       0.12500000       0.24997079       0.37501952 </v>
   <v>       0.12500000       0.37501952       0.24997079 </v>
   <v>       0.00014489       0.24979768       0.50000000 </v>
   <v>      -0.00005357       0.37483856       0.62516144 </v>
   <v>       0.12500000       0.24997079       0.62498048 </v>
   <v>       0.12500000       0.37517628       0.50000000 </v>
   <v>       0.00010650       0.24953185       0.75046815 </v>
   <v>       0.00005716       0.37527205       0.87505716 </v>
   <v>       0.12500000       0.25104561       0.87443546 </v>
   <v>       0.12500000       0.37501952       0.75002921 </v>
   <v>       0.00026466       0.50000000       0.00000000 </v>
   <v>       0.00005716       0.62472795       0.12494284 </v>
   <v>       0.12500000       0.50000000       0.12473534 </v>
   <v>       0.12500000       0.62559095       0.00000000 </v>
   <v>       0.00014489       0.50000000       0.24979768 </v>
   <v>      -0.00005357       0.62516144       0.37483856 </v>
   <v>       0.12500000       0.50000000       0.37517628 </v>
   <v>       0.12500000       0.62498048       0.24997079 </v>
   <v>      -0.00021429       0.50000000       0.50000000 </v>
   <v>      -0.00005357       0.62516144       0.62516144 </v>
   <v>       0.12500000       0.50000000       0.62482372 </v>
   <v>       0.12500000       0.62482372       0.50000000 </v>
   <v>       0.00014489       0.50000000       0.75020232 </v>
   <v>       0.00005716       0.62472795       0.87505716 </v>
   <v>       0.12500000       0.50000000       0.87526466 </v>
   <v>       0.12500000       0.62498048       0.75002921 </v>
   <v>      -0.00056454       0.74895439       0.00000000 </v>
   <v>       0.00086720       0.87586720       0.12413280 </v>
   <v>       0.12500000       0.74895439       0.12556454 </v>
   <v>       0.12500000       0.86996245       0.00000000 </v>
   <v>       0.00010650       0.75046815       0.24953185 </v>
   <v>       0.00005716       0.87505716       0.37527205 </v>
   <v>       0.12500000       0.75002921       0.37501952 </v>
   <v>       0.12500000       0.87443546       0.25104561 </v>
   <v>       0.00014489       0.75020232       0.50000000 </v>
   <v>       0.00005716       0.87505716       0.62472795 </v>
   <v>       0.12500000       0.75002921       0.62498048 </v>
   <v>       0.12500000       0.87526466       0.50000000 </v>
   <v>       0.00010650       0.75046815       0.75046815 </v>
   <v>       0.00086720       0.87586720       0.87586720 </v>
   <v>       0.12500000       0.74895439       0.87443546 </v>
   <v>       0.12500000       0.87443546       0.74895439 </v>
   <v>       0.25503755      -0.00000000       0.00000000 </v>
   <v>       0.24913280       0.12413280       0.12413280 </v>
   <v>       0.37604561      -0.00000000       0.12556454 </v>
   <v>       0.37604561       0.12556454       0.00000000 </v>
   <v>       0.25056454      -0.00000000       0.25104561 </v>
   <v>       0.24994284       0.12494284       0.37527205 </v>
   <v>       0.37497079      -0.00000000       0.37501952 </v>
   <v>       0.37453185       0.12489350       0.24953185 </v>
   <v>       0.24973534      -0.00000000       0.50000000 </v>
   <v>       0.24994284       0.12494284       0.62472795 </v>
   <v>       0.37497079      -0.00000000       0.62498048 </v>
   <v>       0.37479768       0.12485511       0.50000000 </v>
   <v>       0.25056454      -0.00000000       0.74895439 </v>
   <v>       0.24913280       0.12413280       0.87586720 </v>
   <v>       0.37604561      -0.00000000       0.87443546 </v>
   <v>       0.37453185       0.12489350       0.75046815 </v>
   <v>       0.25056454       0.25104561       0.00000000 </v>
   <v>       0.24994284       0.37527205       0.12494284 </v>
   <v>       0.37453185       0.24953185       0.12489350 </v>
   <v>       0.37497079       0.37501952       0.00000000 </v>
   <v>       0.24989350       0.24953185       0.24953185 </v>
   <v>       0.25005357       0.37483856       0.37483856 </v>
   <v>       0.37495280       0.24995280       0.37498681 </v>
   <v>       0.37495280       0.37498681       0.24995280 </v>
   <v>       0.24985511       0.24979768       0.50000000 </v>
   <v>       0.25005357       0.37483856       0.62516144 </v>
   <v>       0.37495280       0.24995280       0.62501319 </v>
   <v>       0.37486597       0.37490533       0.50000000 </v>
   <v>       0.24989350       0.24953185       0.75046815 </v>
   <v>       0.24994284       0.37527205       0.87505716 </v>
   <v>       0.37453185       0.24953185       0.87510650 </v>
   <v>       0.37495280       0.37498681       0.75004720 </v>
   <v>       0.24973534       0.50000000       0.00000000 </v>
   <v>       0.24994284       0.62472795       0.12494284 </v>
   <v>       0.37479768       0.50000000       0.12485511 </v>
   <v>       0.37497079       0.62498048       0.00000000 </v>
   <v>       0.24985511       0.50000000       0.24979768 </v>
   <v>       0.25005357       0.62516144       0.37483856 </v>
   <v>       0.37486597       0.50000000       0.37490533 </v>
   <v>       0.37495280       0.62501319       0.24995280 </v>
   <v>       0.25021429       0.50000000       0.50000000 </v>
   <v>       0.25005357       0.62516144       0.62516144 </v>
   <v>       0.37486597       0.50000000       0.62509467 </v>
   <v>       0.37486597       0.62509467       0.50000000 </v>
   <v>       0.24985511       0.50000000       0.75020232 </v>
   <v>       0.24994284       0.62472795       0.87505716 </v>
   <v>       0.37479768       0.50000000       0.87514489 </v>
   <v>       0.37495280       0.62501319       0.75004720 </v>
   <v>       0.25056454       0.74895439       0.00000000 </v>
   <v>       0.24913280       0.87586720       0.12413280 </v>
   <v>       0.37453185       0.75046815       0.12489350 </v>
   <v>       0.37604561       0.87443546       0.00000000 </v>
   <v>       0.24989350       0.75046815       0.24953185 </v>
   <v>       0.24994284       0.87505716       0.37527205 </v>
   <v>       0.37495280       0.75004720       0.37498681 </v>
   <v>       0.37453185       0.87510650       0.24953185 </v>
   <v>       0.24985511       0.75020232       0.50000000 </v>
   <v>       0.24994284       0.87505716       0.62472795 </v>
   <v>       0.37495280       0.75004720       0.62501319 </v>
   <v>       0.37479768       0.87514489       0.50000000 </v>
   <v>       0.24989350       0.75046815       0.75046815 </v>
   <v>       0.24913280       0.87586720       0.87586720 </v>
   <v>       0.37453185       0.75046815       0.87510650 </v>
   <v>       0.37453185       0.87510650       0.75046815 </v>
   <v>       0.49940905      -0.00000000       0.00000000 </v>
   <v>       0.50027205       0.12494284       0.12494284 </v>
   <v>       0.62500000      -0.00000000       0.12473534 </v>
   <v>       0.62500000       0.12473534       0.00000000 </v>
   <v>       0.50001952      -0.00000000       0.24997079 </v>
   <v>       0.49983856       0.12505357       0.37483856 </v>
   <v>       0.62500000      -0.00000000       0.37517628 </v>
   <v>       0.62500000       0.12485511       0.24979768 </v>
   <v>       0.50017628      -0.00000000       0.50000000 </v>
   <v>       0.49983856       0.12505357       0.62516144 </v>
   <v>       0.62500000      -0.00000000       0.62482372 </v>
   <v>       0.62500000       0.12521429       0.50000000 </v>
   <v>       0.50001952      -0.00000000       0.75002921 </v>
   <v>       0.50027205       0.12494284       0.87505716 </v>
   <v>       0.62500000      -0.00000000       0.87526466 </v>
   <v>       0.62500000       0.12485511       0.75020232 </v>
   <v>       0.50001952       0.24997079       0.00000000 </v>
   <v>       0.49983856       0.37483856       0.12505357 </v>
   <v>       0.62500000       0.24979768       0.12485511 </v>
   <v>       0.62500000       0.37517628       0.00000000 </v>
   <v>       0.49998681       0.24995280       0.24995280 </v>
   <v>       0.50001389       0.37501389       0.37501389 </v>
   <v>       0.62500000       0.24986597       0.37490533 </v>
   <v>       0.62500000       0.37490533       0.24986597 </v>
   <v>       0.49990533       0.24986597       0.50000000 </v>
   <v>       0.50001389       0.37501389       0.62498611 </v>
   <v>       0.62500000       0.24986597       0.62509467 </v>
   <v>       0.62500000       0.37488441       0.50000000 </v>
   <v>       0.49998681       0.24995280       0.75004720 </v>
   <v>       0.49983856       0.37483856       0.87494643 </v>
   <v>       0.62500000       0.24979768       0.87514489 </v>
   <v>       0.62500000       0.37490533       0.75013403 </v>
   <v>       0.50017628       0.50000000       0.00000000 </v>
   <v>       0.49983856       0.62516144       0.12505357 </v>
   <v>       0.62500000       0.50000000       0.12521429 </v>
   <v>       0.62500000       0.62482372       0.00000000 </v>
   <v>       0.49990533       0.50000000       0.24986597 </v>
   <v>       0.50001389       0.62498611       0.37501389 </v>
   <v>       0.62500000       0.50000000       0.37488441 </v>
   <v>       0.62500000       0.62509467       0.24986597 </v>
   <v>       0.49988441       0.50000000       0.50000000 </v>
   <v>       0.50001389       0.62498611       0.62498611 </v>
   <v>       0.62500000       0.50000000       0.62511559 </v>
   <v>       0.62500000       0.62511559       0.50000000 </v>
   <v>       0.49990533       0.50000000       0.75013403 </v>
   <v>       0.49983856       0.62516144       0.87494643 </v>
   <v>       0.62500000       0.50000000       0.87478571 </v>
   <v>       0.62500000       0.62509467       0.75013403 </v>
   <v>       0.50001952       0.75002921       0.00000000 </v>
   <v>       0.50027205       0.87505716       0.12494284 </v>
   <v>       0.62500000       0.75020232       0.12485511 </v>
   <v>       0.62500000       0.87526466       0.00000000 </v>
   <v>       0.49998681       0.75004720       0.24995280 </v>
   <v>       0.49983856       0.87494643       0.37483856 </v>
   <v>       0.62500000       0.75013403       0.37490533 </v>
   <v>       0.62500000       0.87514489       0.24979768 </v>
   <v>       0.49990533       0.75013403       0.50000000 </v>
   <v>       0.49983856       0.87494643       0.62516144 </v>
   <v>       0.62500000       0.75013403       0.62509467 </v>
   <v>       0.62500000       0.87478571       0.50000000 </v>
   <v>       0.49998681       0.75004720       0.75004720 </v>
   <v>       0.50027205       0.87505716       0.87505716 </v>
   <v>       0.62500000       0.75020232       0.87514489 </v>
   <v>       0.62500000       0.87514489       0.75020232 </v>
   <v>       0.75059095      -0.00000000       0.00000000 </v>
   <v>       0.74972795       0.12494284       0.12494284 </v>
   <v>       0.87395439      -0.00000000       0.12556454 </v>
   <v>       0.87395439       0.12556454       0.00000000 </v>
   <v>       0.74998048      -0.00000000       0.24997079 </v>
   <v>       0.75016144       0.12505357       0.37483856 </v>
   <v>       0.87502921      -0.00000000       0.37501952 </v>
   <v>       0.87546815       0.12489350       0.24953185 </v>
   <v>       0.74982372      -0.00000000       0.50000000 </v>
   <v>       0.75016144       0.12505357       0.62516144 </v>
   <v>       0.87502921      -0.00000000       0.62498048 </v>
   <v>       0.87520232       0.12485511       0.50000000 </v>
   <v>       0.74998048      -0.00000000       0.75002921 </v>
   <v>       0.74972795       0.12494284       0.87505716 </v>
   <v>       0.87395439      -0.00000000       0.87443546 </v>
   <v>       0.87546815       0.12489350       0.75046815 </v>
   <v>       0.74998048       0.24997079       0.00000000 </v>
   <v>       0.75016144       0.37483856       0.12505357 </v>
   <v>       0.87546815       0.24953185       0.12489350 </v>
   <v>       0.87502921       0.37501952       0.00000000 </v>
   <v>       0.75001319       0.24995280       0.24995280 </v>
   <v>       0.74998611       0.37501389       0.37501389 </v>
   <v>       0.87504720       0.24995280       0.37498681 </v>
   <v>       0.87504720       0.37498681       0.24995280 </v>
   <v>       0.75009467       0.24986597       0.50000000 </v>
   <v>       0.74998611       0.37501389       0.62498611 </v>
   <v>       0.87504720       0.24995280       0.62501319 </v>
   <v>       0.87513403       0.37490533       0.50000000 </v>
   <v>       0.75001319       0.24995280       0.75004720 </v>
   <v>       0.75016144       0.37483856       0.87494643 </v>
   <v>       0.87546815       0.24953185       0.87510650 </v>
   <v>       0.87504720       0.37498681       0.75004720 </v>
   <v>       0.74982372       0.50000000       0.00000000 </v>
   <v>       0.75016144       0.62516144       0.12505357 </v>
   <v>       0.87520232       0.50000000       0.12485511 </v>
   <v>       0.87502921       0.62498048       0.00000000 </v>
   <v>       0.75009467       0.50000000       0.24986597 </v>
   <v>       0.74998611       0.62498611       0.37501389 </v>
   <v>       0.87513403       0.50000000       0.37490533 </v>
   <v>       0.87504720       0.62501319       0.24995280 </v>
   <v>       0.75011559       0.50000000       0.50000000 </v>
   <v>       0.74998611       0.62498611       0.62498611 </v>
   <v>       0.87513403       0.50000000       0.62509467 </v>
   <v>       0.87513403       0.62509467       0.50000000 </v>
   <v>       0.75009467       0.50000000       0.75013403 </v>
   <v>       0.75016144       0.62516144       0.87494643 </v>
   <v>       0.87520232       0.50000000       0.87514489 </v>
   <v>       0.87504720       0.62501319       0.75004720 </v>
   <v>       0.74998048       0.75002921       0.00000000 </v>
   <v>       0.74972795       0.87505716       0.12494284 </v>
   <v>       0.87546815       0.75046815       0.12489350 </v>
   <v>       0.87395439       0.87443546       0.00000000 </v>
   <v>       0.75001319       0.75004720       0.24995280 </v>
   <v>       0.75016144       0.87494643       0.37483856 </v>
   <v>       0.87504720       0.75004720       0.37498681 </v>
   <v>       0.87546815       0.87510650       0.24953185 </v>
   <v>       0.75009467       0.75013403       0.50000000 </v>
   <v>       0.75016144       0.87494643       0.62516144 </v>
   <v>       0.87504720       0.75004720       0.62501319 </v>
   <v>       0.87520232       0.87514489       0.50000000 </v>
   <v>       0.75001319       0.75004720       0.75004720 </v>
   <v>       0.74972795       0.87505716       0.87505716 </v>
   <v>       0.87546815       0.75046815       0.87510650 </v>
   <v>       0.87546815       0.87510650       0.75046815 </v>
   <v>       0.12500000      -0.00000000       0.00000000 </v>
  </varray>
 </structure>
</modeling>
