NiAl                                    
            1
    16.198000    0.000000    0.000000
     0.000000   16.198000    0.000000
     0.000000    0.000000   16.198000
   Al   O 
   256     1
Direct configuration=     1
   0.00000000  0.00000000  0.00000000
   0.00000000  0.12500000  0.12500000
   0.12500000  0.00000000  0.12500000
   0.12500000  0.12500000  0.00000000
   0.00000000  0.00000000  0.25000000
   0.00000000  0.12500000  0.37500000
   0.12500000  0.00000000  0.37500000
   0.12500000  0.12500000  0.25000000
   0.00000000  0.00000000  0.50000000
   0.00000000  0.12500000  0.62500000
   0.12500000  0.00000000  0.62500000
   0.12500000  0.12500000  0.50000000
   0.00000000  0.00000000  0.75000000
   0.00000000  0.12500000  0.87500000
   0.12500000  0.00000000  0.87500000
   0.12500000  0.12500000  0.75000000
   0.00000000  0.25000000  0.00000000
   0.00000000  0.37500000  0.12500000
   0.12500000  0.25000000  0.12500000
   0.12500000  0.37500000  0.00000000
   0.00000000  0.25000000  0.25000000
   0.00000000  0.37500000  0.37500000
   0.12500000  0.25000000  0.37500000
   0.12500000  0.37500000  0.25000000
   0.00000000  0.25000000  0.50000000
   0.00000000  0.37500000  0.62500000
   0.12500000  0.25000000  0.62500000
   0.12500000  0.37500000  0.50000000
   0.00000000  0.25000000  0.75000000
   0.00000000  0.37500000  0.87500000
   0.12500000  0.25000000  0.87500000
   0.12500000  0.37500000  0.75000000
   0.00000000  0.50000000  0.00000000
   0.00000000  0.62500000  0.12500000
   0.12500000  0.50000000  0.12500000
   0.12500000  0.62500000  0.00000000
   0.00000000  0.50000000  0.25000000
   0.00000000  0.62500000  0.37500000
   0.12500000  0.50000000  0.37500000
   0.12500000  0.62500000  0.25000000
   0.00000000  0.50000000  0.50000000
   0.00000000  0.62500000  0.62500000
   0.12500000  0.50000000  0.62500000
   0.12500000  0.62500000  0.50000000
   0.00000000  0.50000000  0.75000000
   0.00000000  0.62500000  0.87500000
   0.12500000  0.50000000  0.87500000
   0.12500000  0.62500000  0.75000000
   0.00000000  0.75000000  0.00000000
   0.00000000  0.87500000  0.12500000
   0.12500000  0.75000000  0.12500000
   0.12500000  0.87500000  0.00000000
   0.00000000  0.75000000  0.25000000
   0.00000000  0.87500000  0.37500000
   0.12500000  0.75000000  0.37500000
   0.12500000  0.87500000  0.25000000
   0.00000000  0.75000000  0.50000000
   0.00000000  0.87500000  0.62500000
   0.12500000  0.75000000  0.62500000
   0.12500000  0.87500000  0.50000000
   0.00000000  0.75000000  0.75000000
   0.00000000  0.87500000  0.87500000
   0.12500000  0.75000000  0.87500000
   0.12500000  0.87500000  0.75000000
   0.25000000  0.00000000  0.00000000
   0.25000000  0.12500000  0.12500000
   0.37500000  0.00000000  0.12500000
   0.37500000  0.12500000  0.00000000
   0.25000000  0.00000000  0.25000000
   0.25000000  0.12500000  0.37500000
   0.37500000  0.00000000  0.37500000
   0.37500000  0.12500000  0.25000000
   0.25000000  0.00000000  0.50000000
   0.25000000  0.12500000  0.62500000
   0.37500000  0.00000000  0.62500000
   0.37500000  0.12500000  0.50000000
   0.25000000  0.00000000  0.75000000
   0.25000000  0.12500000  0.87500000
   0.37500000  0.00000000  0.87500000
   0.37500000  0.12500000  0.75000000
   0.25000000  0.25000000  0.00000000
   0.25000000  0.37500000  0.12500000
   0.37500000  0.25000000  0.12500000
   0.37500000  0.37500000  0.00000000
   0.25000000  0.25000000  0.25000000
   0.25000000  0.37500000  0.37500000
   0.37500000  0.25000000  0.37500000
   0.37500000  0.37500000  0.25000000
   0.25000000  0.25000000  0.50000000
   0.25000000  0.37500000  0.62500000
   0.37500000  0.25000000  0.62500000
   0.37500000  0.37500000  0.50000000
   0.25000000  0.25000000  0.75000000
   0.25000000  0.37500000  0.87500000
   0.37500000  0.25000000  0.87500000
   0.37500000  0.37500000  0.75000000
   0.25000000  0.50000000  0.00000000
   0.25000000  0.62500000  0.12500000
   0.37500000  0.50000000  0.12500000
   0.37500000  0.62500000  0.00000000
   0.25000000  0.50000000  0.25000000
   0.25000000  0.62500000  0.37500000
   0.37500000  0.50000000  0.37500000
   0.37500000  0.62500000  0.25000000
   0.25000000  0.50000000  0.50000000
   0.25000000  0.62500000  0.62500000
   0.37500000  0.50000000  0.62500000
   0.37500000  0.62500000  0.50000000
   0.25000000  0.50000000  0.75000000
   0.25000000  0.62500000  0.87500000
   0.37500000  0.50000000  0.87500000
   0.37500000  0.62500000  0.75000000
   0.25000000  0.75000000  0.00000000
   0.25000000  0.87500000  0.12500000
   0.37500000  0.75000000  0.12500000
   0.37500000  0.87500000  0.00000000
   0.25000000  0.75000000  0.25000000
   0.25000000  0.87500000  0.37500000
   0.37500000  0.75000000  0.37500000
   0.37500000  0.87500000  0.25000000
   0.25000000  0.75000000  0.50000000
   0.25000000  0.87500000  0.62500000
   0.37500000  0.75000000  0.62500000
   0.37500000  0.87500000  0.50000000
   0.25000000  0.75000000  0.75000000
   0.25000000  0.87500000  0.87500000
   0.37500000  0.75000000  0.87500000
   0.37500000  0.87500000  0.75000000
   0.50000000  0.00000000  0.00000000
   0.50000000  0.12500000  0.12500000
   0.62500000  0.00000000  0.12500000
   0.62500000  0.12500000  0.00000000
   0.50000000  0.00000000  0.25000000
   0.50000000  0.12500000  0.37500000
   0.62500000  0.00000000  0.37500000
   0.62500000  0.12500000  0.25000000
   0.50000000  0.00000000  0.50000000
   0.50000000  0.12500000  0.62500000
   0.62500000  0.00000000  0.62500000
   0.62500000  0.12500000  0.50000000
   0.50000000  0.00000000  0.75000000
   0.50000000  0.12500000  0.87500000
   0.62500000  0.00000000  0.87500000
   0.62500000  0.12500000  0.75000000
   0.50000000  0.25000000  0.00000000
   0.50000000  0.37500000  0.12500000
   0.62500000  0.25000000  0.12500000
   0.62500000  0.37500000  0.00000000
   0.50000000  0.25000000  0.25000000
   0.50000000  0.37500000  0.37500000
   0.62500000  0.25000000  0.37500000
   0.62500000  0.37500000  0.25000000
   0.50000000  0.25000000  0.50000000
   0.50000000  0.37500000  0.62500000
   0.62500000  0.25000000  0.62500000
   0.62500000  0.37500000  0.50000000
   0.50000000  0.25000000  0.75000000
   0.50000000  0.37500000  0.87500000
   0.62500000  0.25000000  0.87500000
   0.62500000  0.37500000  0.75000000
   0.50000000  0.50000000  0.00000000
   0.50000000  0.62500000  0.12500000
   0.62500000  0.50000000  0.12500000
   0.62500000  0.62500000  0.00000000
   0.50000000  0.50000000  0.25000000
   0.50000000  0.62500000  0.37500000
   0.62500000  0.50000000  0.37500000
   0.62500000  0.62500000  0.25000000
   0.50000000  0.50000000  0.50000000
   0.50000000  0.62500000  0.62500000
   0.62500000  0.50000000  0.62500000
   0.62500000  0.62500000  0.50000000
   0.50000000  0.50000000  0.75000000
   0.50000000  0.62500000  0.87500000
   0.62500000  0.50000000  0.87500000
   0.62500000  0.62500000  0.75000000
   0.50000000  0.75000000  0.00000000
   0.50000000  0.87500000  0.12500000
   0.62500000  0.75000000  0.12500000
   0.62500000  0.87500000  0.00000000
   0.50000000  0.75000000  0.25000000
   0.50000000  0.87500000  0.37500000
   0.62500000  0.75000000  0.37500000
   0.62500000  0.87500000  0.25000000
   0.50000000  0.75000000  0.50000000
   0.50000000  0.87500000  0.62500000
   0.62500000  0.75000000  0.62500000
   0.62500000  0.87500000  0.50000000
   0.50000000  0.75000000  0.75000000
   0.50000000  0.87500000  0.87500000
   0.62500000  0.75000000  0.87500000
   0.62500000  0.87500000  0.75000000
   0.75000000  0.00000000  0.00000000
   0.75000000  0.12500000  0.12500000
   0.87500000  0.00000000  0.12500000
   0.87500000  0.12500000  0.00000000
   0.75000000  0.00000000  0.25000000
   0.75000000  0.12500000  0.37500000
   0.87500000  0.00000000  0.37500000
   0.87500000  0.12500000  0.25000000
   0.75000000  0.00000000  0.50000000
   0.75000000  0.12500000  0.62500000
   0.87500000  0.00000000  0.62500000
   0.87500000  0.12500000  0.50000000
   0.75000000  0.00000000  0.75000000
   0.75000000  0.12500000  0.87500000
   0.87500000  0.00000000  0.87500000
   0.87500000  0.12500000  0.75000000
   0.75000000  0.25000000  0.00000000
   0.75000000  0.37500000  0.12500000
   0.87500000  0.25000000  0.12500000
   0.87500000  0.37500000  0.00000000
   0.75000000  0.25000000  0.25000000
   0.75000000  0.37500000  0.37500000
   0.87500000  0.25000000  0.37500000
   0.87500000  0.37500000  0.25000000
   0.75000000  0.25000000  0.50000000
   0.75000000  0.37500000  0.62500000
   0.87500000  0.25000000  0.62500000
   0.87500000  0.37500000  0.50000000
   0.75000000  0.25000000  0.75000000
   0.75000000  0.37500000  0.87500000
   0.87500000  0.25000000  0.87500000
   0.87500000  0.37500000  0.75000000
   0.75000000  0.50000000  0.00000000
   0.75000000  0.62500000  0.12500000
   0.87500000  0.50000000  0.12500000
   0.87500000  0.62500000  0.00000000
   0.75000000  0.50000000  0.25000000
   0.75000000  0.62500000  0.37500000
   0.87500000  0.50000000  0.37500000
   0.87500000  0.62500000  0.25000000
   0.75000000  0.50000000  0.50000000
   0.75000000  0.62500000  0.62500000
   0.87500000  0.50000000  0.62500000
   0.87500000  0.62500000  0.50000000
   0.75000000  0.50000000  0.75000000
   0.75000000  0.62500000  0.87500000
   0.87500000  0.50000000  0.87500000
   0.87500000  0.62500000  0.75000000
   0.75000000  0.75000000  0.00000000
   0.75000000  0.87500000  0.12500000
   0.87500000  0.75000000  0.12500000
   0.87500000  0.87500000  0.00000000
   0.75000000  0.75000000  0.25000000
   0.75000000  0.87500000  0.37500000
   0.87500000  0.75000000  0.37500000
   0.87500000  0.87500000  0.25000000
   0.75000000  0.75000000  0.50000000
   0.75000000  0.87500000  0.62500000
   0.87500000  0.75000000  0.62500000
   0.87500000  0.87500000  0.50000000
   0.75000000  0.75000000  0.75000000
   0.75000000  0.87500000  0.87500000
   0.87500000  0.75000000  0.87500000
   0.87500000  0.87500000  0.75000000
   0.12500000  0.00000000  0.00000000
Direct configuration=     2
  -0.00111242 -0.00000000  0.00000000
   0.00011948  0.12488052  0.12488052
   0.12500000 -0.00000000  0.12611242
   0.12500000  0.12611242  0.00000000
   0.00000639 -0.00000000  0.25004893
   0.00001156  0.12498844  0.37500384
   0.12500000 -0.00000000  0.37495028
   0.12500000  0.12499361  0.25004893
   0.00000862 -0.00000000  0.50000000
   0.00001156  0.12498844  0.62499616
   0.12500000 -0.00000000  0.62504972
   0.12500000  0.12499138  0.50000000
   0.00000639 -0.00000000  0.74995107
   0.00011948  0.12488052  0.87511948
   0.12500000 -0.00000000  0.87388758
   0.12500000  0.12499361  0.74995107
   0.00000639  0.25004893  0.00000000
   0.00001156  0.37500384  0.12498844
   0.12500000  0.25004893  0.12499361
   0.12500000  0.37495028  0.00000000
   0.00000193  0.24998318  0.24998318
  -0.00000316  0.37499569  0.37499569
   0.12500000  0.24998134  0.37498015
   0.12500000  0.37498015  0.24998134
   0.00000212  0.24998244  0.50000000
  -0.00000316  0.37499569  0.62500431
   0.12500000  0.24998134  0.62501985
   0.12500000  0.37501234  0.50000000
   0.00000193  0.24998318  0.75001682
   0.00001156  0.37500384  0.87501156
   0.12500000  0.25004893  0.87500639
   0.12500000  0.37498015  0.75001866
   0.00000862  0.50000000  0.00000000
   0.00001156  0.62499616  0.12498844
   0.12500000  0.50000000  0.12499138
   0.12500000  0.62504972  0.00000000
   0.00000212  0.50000000  0.24998244
  -0.00000316  0.62500431  0.37499569
   0.12500000  0.50000000  0.37501234
   0.12500000  0.62501985  0.24998134
  -0.00000346  0.50000000  0.50000000
  -0.00000316  0.62500431  0.62500431
   0.12500000  0.50000000  0.62498766
   0.12500000  0.62498766  0.50000000
   0.00000212  0.50000000  0.75001756
   0.00001156  0.62499616  0.87501156
   0.12500000  0.50000000  0.87500862
   0.12500000  0.62501985  0.75001866
   0.00000639  0.74995107  0.00000000
   0.00011948  0.87511948  0.12488052
   0.12500000  0.74995107  0.12499361
   0.12500000  0.87388758  0.00000000
   0.00000193  0.75001682  0.24998318
   0.00001156  0.87501156  0.37500384
   0.12500000  0.75001866  0.37498015
   0.12500000  0.87500639  0.25004893
   0.00000212  0.75001756  0.50000000
   0.00001156  0.87501156  0.62499616
   0.12500000  0.75001866  0.62501985
   0.12500000  0.87500862  0.50000000
   0.00000193  0.75001682  0.75001682
   0.00011948  0.87511948  0.87511948
   0.12500000  0.74995107  0.87500639
   0.12500000  0.87500639  0.74995107
   0.25111242 -0.00000000  0.00000000
   0.24988052  0.12488052  0.12488052
   0.37504893 -0.00000000  0.12499361
   0.37504893  0.12499361  0.00000000
   0.24999361 -0.00000000  0.25004893
   0.24998844  0.12498844  0.37500384
   0.37498134 -0.00000000  0.37498015
   0.37498318  0.12499807  0.24998318
   0.24999138 -0.00000000  0.50000000
   0.24998844  0.12498844  0.62499616
   0.37498134 -0.00000000  0.62501985
   0.37498244  0.12499788  0.50000000
   0.24999361 -0.00000000  0.74995107
   0.24988052  0.12488052  0.87511948
   0.37504893 -0.00000000  0.87500639
   0.37498318  0.12499807  0.75001682
   0.24999361  0.25004893  0.00000000
   0.24998844  0.37500384  0.12498844
   0.37498318  0.24998318  0.12499807
   0.37498134  0.37498015  0.00000000
   0.24999807  0.24998318  0.24998318
   0.25000316  0.37499569  0.37499569
   0.37500642  0.25000642  0.37500507
   0.37500642  0.37500507  0.25000642
   0.24999788  0.24998244  0.50000000
   0.25000316  0.37499569  0.62500431
   0.37500642  0.25000642  0.62499493
   0.37499890  0.37499700  0.50000000
   0.24999807  0.24998318  0.75001682
   0.24998844  0.37500384  0.87501156
   0.37498318  0.24998318  0.87500193
   0.37500642  0.37500507  0.74999358
   0.24999138  0.50000000  0.00000000
   0.24998844  0.62499616  0.12498844
   0.37498244  0.50000000  0.12499788
   0.37498134  0.62501985  0.00000000
   0.24999788  0.50000000  0.24998244
   0.25000316  0.62500431  0.37499569
   0.37499890  0.50000000  0.37499700
   0.37500642  0.62499493  0.25000642
   0.25000346  0.50000000  0.50000000
   0.25000316  0.62500431  0.62500431
   0.37499890  0.50000000  0.62500300
   0.37499890  0.62500300  0.50000000
   0.24999788  0.50000000  0.75001756
   0.24998844  0.62499616  0.87501156
   0.37498244  0.50000000  0.87500212
   0.37500642  0.62499493  0.74999358
   0.24999361  0.74995107  0.00000000
   0.24988052  0.87511948  0.12488052
   0.37498318  0.75001682  0.12499807
   0.37504893  0.87500639  0.00000000
   0.24999807  0.75001682  0.24998318
   0.24998844  0.87501156  0.37500384
   0.37500642  0.74999358  0.37500507
   0.37498318  0.87500193  0.24998318
   0.24999788  0.75001756  0.50000000
   0.24998844  0.87501156  0.62499616
   0.37500642  0.74999358  0.62499493
   0.37498244  0.87500212  0.50000000
   0.24999807  0.75001682  0.75001682
   0.24988052  0.87511948  0.87511948
   0.37498318  0.75001682  0.87500193
   0.37498318  0.87500193  0.75001682
   0.49995028 -0.00000000  0.00000000
   0.50000384  0.12498844  0.12498844
   0.62500000 -0.00000000  0.12499138
   0.62500000  0.12499138  0.00000000
   0.49998015 -0.00000000  0.24998134
   0.49999569  0.12500316  0.37499569
   0.62500000 -0.00000000  0.37501234
   0.62500000  0.12499788  0.24998244
   0.50001234 -0.00000000  0.50000000
   0.49999569  0.12500316  0.62500431
   0.62500000 -0.00000000  0.62498766
   0.62500000  0.12500346  0.50000000
   0.49998015 -0.00000000  0.75001866
   0.50000384  0.12498844  0.87501156
   0.62500000 -0.00000000  0.87500862
   0.62500000  0.12499788  0.75001756
   0.49998015  0.24998134  0.00000000
   0.49999569  0.37499569  0.12500316
   0.62500000  0.24998244  0.12499788
   0.62500000  0.37501234  0.00000000
   0.50000507  0.25000642  0.25000642
   0.49999737  0.37499737  0.37499737
   0.62500000  0.24999890  0.37499700
   0.62500000  0.37499700  0.24999890
   0.49999700  0.24999890  0.50000000
   0.49999737  0.37499737  0.62500263
   0.62500000  0.24999890  0.62500300
   0.62500000  0.37500170  0.50000000
   0.50000507  0.25000642  0.74999358
   0.49999569  0.37499569  0.87499684
   0.62500000  0.24998244  0.87500212
   0.62500000  0.37499700  0.75000110
   0.50001234  0.50000000  0.00000000
   0.49999569  0.62500431  0.12500316
   0.62500000  0.50000000  0.12500346
   0.62500000  0.62498766  0.00000000
   0.49999700  0.50000000  0.24999890
   0.49999737  0.62500263  0.37499737
   0.62500000  0.50000000  0.37500170
   0.62500000  0.62500300  0.24999890
   0.50000170  0.50000000  0.50000000
   0.49999737  0.62500263  0.62500263
   0.62500000  0.50000000  0.62499830
   0.62500000  0.62499830  0.50000000
   0.49999700  0.50000000  0.75000110
   0.49999569  0.62500431  0.87499684
   0.62500000  0.50000000  0.87499654
   0.62500000  0.62500300  0.75000110
   0.49998015  0.75001866  0.00000000
   0.50000384  0.87501156  0.12498844
   0.62500000  0.75001756  0.12499788
   0.62500000  0.87500862  0.00000000
   0.50000507  0.74999358  0.25000642
   0.49999569  0.87499684  0.37499569
   0.62500000  0.75000110  0.37499700
   0.62500000  0.87500212  0.24998244
   0.49999700  0.75000110  0.50000000
   0.49999569  0.87499684  0.62500431
   0.62500000  0.75000110  0.62500300
   0.62500000  0.87499654  0.50000000
   0.50000507  0.74999358  0.74999358
   0.50000384  0.87501156  0.87501156
   0.62500000  0.75001756  0.87500212
   0.62500000  0.87500212  0.75001756
   0.75004972 -0.00000000  0.00000000
   0.74999616  0.12498844  0.12498844
   0.87495107 -0.00000000  0.12499361
   0.87495107  0.12499361  0.00000000
   0.75001985 -0.00000000  0.24998134
   0.75000431  0.12500316  0.37499569
   0.87501866 -0.00000000  0.37498015
   0.87501682  0.12499807  0.24998318
   0.74998766 -0.00000000  0.50000000
   0.75000431  0.12500316  0.62500431
   0.87501866 -0.00000000  0.62501985
   0.87501756  0.12499788  0.50000000
   0.75001985 -0.00000000  0.75001866
   0.74999616  0.12498844  0.87501156
   0.87495107 -0.00000000  0.87500639
   0.87501682  0.12499807  0.75001682
   0.75001985  0.24998134  0.00000000
   0.75000431  0.37499569  0.12500316
   0.87501682  0.24998318  0.12499807
   0.87501866  0.37498015  0.00000000
   0.74999493  0.25000642  0.25000642
   0.75000263  0.37499737  0.37499737
   0.87499358  0.25000642  0.37500507
   0.87499358  0.37500507  0.25000642
   0.75000300  0.24999890  0.50000000
   0.75000263  0.37499737  0.62500263
   0.87499358  0.25000642  0.62499493
   0.87500110  0.37499700  0.50000000
   0.74999493  0.25000642  0.74999358
   0.75000431  0.37499569  0.87499684
   0.87501682  0.24998318  0.87500193
   0.87499358  0.37500507  0.74999358
   0.74998766  0.50000000  0.00000000
   0.75000431  0.62500431  0.12500316
   0.87501756  0.50000000  0.12499788
   0.87501866  0.62501985  0.00000000
   0.75000300  0.50000000  0.24999890
   0.75000263  0.62500263  0.37499737
   0.87500110  0.50000000  0.37499700
   0.87499358  0.62499493  0.25000642
   0.74999830  0.50000000  0.50000000
   0.75000263  0.62500263  0.62500263
   0.87500110  0.50000000  0.62500300
   0.87500110  0.62500300  0.50000000
   0.75000300  0.50000000  0.75000110
   0.75000431  0.62500431  0.87499684
   0.87501756  0.50000000  0.87500212
   0.87499358  0.62499493  0.74999358
   0.75001985  0.75001866  0.00000000
   0.74999616  0.87501156  0.12498844
   0.87501682  0.75001682  0.12499807
   0.87495107  0.87500639  0.00000000
   0.74999493  0.74999358  0.25000642
   0.75000431  0.87499684  0.37499569
   0.87499358  0.74999358  0.37500507
   0.87501682  0.87500193  0.24998318
   0.75000300  0.75000110  0.50000000
   0.75000431  0.87499684  0.62500431
   0.87499358  0.74999358  0.62499493
   0.87501756  0.87500212  0.50000000
   0.74999493  0.74999358  0.74999358
   0.74999616  0.87501156  0.87501156
   0.87501682  0.75001682  0.87500193
   0.87501682  0.87500193  0.75001682
   0.12500000 -0.00000000  0.00000000
Direct configuration=     3
  -0.00433289 -0.00000000  0.00000000
   0.00046539  0.12453461  0.12453461
   0.12500000 -0.00000000  0.12933289
   0.12500000  0.12933289  0.00000000
   0.00002490 -0.00000000  0.25019060
   0.00004502  0.12495498  0.37501495
   0.12500000 -0.00000000  0.37480633
   0.12500000  0.12497510  0.25019060
   0.00003356 -0.00000000  0.50000000
   0.00004502  0.12495498  0.62498505
   0.12500000 -0.00000000  0.62519367
   0.12500000  0.12496644  0.50000000
   0.00002490 -0.00000000  0.74980940
   0.00046539  0.12453461  0.87546539
   0.12500000 -0.00000000  0.87066711
   0.12500000  0.12497510  0.74980940
   0.00002490  0.25019060  0.00000000
   0.00004502  0.37501495  0.12495498
   0.12500000  0.25019060  0.12497510
   0.12500000  0.37480633  0.00000000
   0.00000752  0.24993450  0.24993450
  -0.00001231  0.37498320  0.37498320
   0.12500000  0.24992730  0.37492270
   0.12500000  0.37492270  0.24992730
   0.00000826  0.24993160  0.50000000
  -0.00001231  0.37498320  0.62501680
   0.12500000  0.24992730  0.62507730
   0.12500000  0.37504806  0.50000000
   0.00000752  0.24993450  0.75006550
   0.00004502  0.37501495  0.87504502
   0.12500000  0.25019060  0.87502490
   0.12500000  0.37492270  0.75007270
   0.00003356  0.50000000  0.00000000
   0.00004502  0.62498505  0.12495498
   0.12500000  0.50000000  0.12496644
   0.12500000  0.62519367  0.00000000
   0.00000826  0.50000000  0.24993160
  -0.00001231  0.62501680  0.37498320
   0.12500000  0.50000000  0.37504806
   0.12500000  0.62507730  0.24992730
  -0.00001349  0.50000000  0.50000000
  -0.00001231  0.62501680  0.62501680
   0.12500000  0.50000000  0.62495194
   0.12500000  0.62495194  0.50000000
   0.00000826  0.50000000  0.75006840
   0.00004502  0.62498505  0.87504502
   0.12500000  0.50000000  0.87503356
   0.12500000  0.62507730  0.75007270
   0.00002490  0.74980940  0.00000000
   0.00046539  0.87546539  0.12453461
   0.12500000  0.74980940  0.12497510
   0.12500000  0.87066711  0.00000000
   0.00000752  0.75006550  0.24993450
   0.00004502  0.87504502  0.37501495
   0.12500000  0.75007270  0.37492270
   0.12500000  0.87502490  0.25019060
   0.00000826  0.75006840  0.50000000
   0.00004502  0.87504502  0.62498505
   0.12500000  0.75007270  0.62507730
   0.12500000  0.87503356  0.50000000
   0.00000752  0.75006550  0.75006550
   0.00046539  0.87546539  0.87546539
   0.12500000  0.74980940  0.87502490
   0.12500000  0.87502490  0.74980940
   0.25433289 -0.00000000  0.00000000
   0.24953461  0.12453461  0.12453461
   0.37519060 -0.00000000  0.12497510
   0.37519060  0.12497510  0.00000000
   0.24997510 -0.00000000  0.25019060
   0.24995498  0.12495498  0.37501495
   0.37492730 -0.00000000  0.37492270
   0.37493450  0.12499248  0.24993450
   0.24996644 -0.00000000  0.50000000
   0.24995498  0.12495498  0.62498505
   0.37492730 -0.00000000  0.62507730
   0.37493160  0.12499174  0.50000000
   0.24997510 -0.00000000  0.74980940
   0.24953461  0.12453461  0.87546539
   0.37519060 -0.00000000  0.87502490
   0.37493450  0.12499248  0.75006550
   0.24997510  0.25019060  0.00000000
   0.24995498  0.37501495  0.12495498
   0.37493450  0.24993450  0.12499248
   0.37492730  0.37492270  0.00000000
   0.24999248  0.24993450  0.24993450
   0.25001231  0.37498320  0.37498320
   0.37502499  0.25002499  0.37501976
   0.37502499  0.37501976  0.25002499
   0.24999174  0.24993160  0.50000000
   0.25001231  0.37498320  0.62501680
   0.37502499  0.25002499  0.62498024
   0.37499570  0.37498830  0.50000000
   0.24999248  0.24993450  0.75006550
   0.24995498  0.37501495  0.87504502
   0.37493450  0.24993450  0.87500752
   0.37502499  0.37501976  0.74997501
   0.24996644  0.50000000  0.00000000
   0.24995498  0.62498505  0.12495498
   0.37493160  0.50000000  0.12499174
   0.37492730  0.62507730  0.00000000
   0.24999174  0.50000000  0.24993160
   0.25001231  0.62501680  0.37498320
   0.37499570  0.50000000  0.37498830
   0.37502499  0.62498024  0.25002499
   0.25001349  0.50000000  0.50000000
   0.25001231  0.62501680  0.62501680
   0.37499570  0.50000000  0.62501170
   0.37499570  0.62501170  0.50000000
   0.24999174  0.50000000  0.75006840
   0.24995498  0.62498505  0.87504502
   0.37493160  0.50000000  0.87500826
   0.37502499  0.62498024  0.74997501
   0.24997510  0.74980940  0.00000000
   0.24953461  0.87546539  0.12453461
   0.37493450  0.75006550  0.12499248
   0.37519060  0.87502490  0.00000000
   0.24999248  0.75006550  0.24993450
   0.24995498  0.87504502  0.37501495
   0.37502499  0.74997501  0.37501976
   0.37493450  0.87500752  0.24993450
   0.24999174  0.75006840  0.50000000
   0.24995498  0.87504502  0.62498505
   0.37502499  0.74997501  0.62498024
   0.37493160  0.87500826  0.50000000
   0.24999248  0.75006550  0.75006550
   0.24953461  0.87546539  0.87546539
   0.37493450  0.75006550  0.87500752
   0.37493450  0.87500752  0.75006550
   0.49980633 -0.00000000  0.00000000
   0.50001495  0.12495498  0.12495498
   0.62500000 -0.00000000  0.12496644
   0.62500000  0.12496644  0.00000000
   0.49992270 -0.00000000  0.24992730
   0.49998320  0.12501231  0.37498320
   0.62500000 -0.00000000  0.37504806
   0.62500000  0.12499174  0.24993160
   0.50004806 -0.00000000  0.50000000
   0.49998320  0.12501231  0.62501680
   0.62500000 -0.00000000  0.62495194
   0.62500000  0.12501349  0.50000000
   0.49992270 -0.00000000  0.75007270
   0.50001495  0.12495498  0.87504502
   0.62500000 -0.00000000  0.87503356
   0.62500000  0.12499174  0.75006840
   0.49992270  0.24992730  0.00000000
   0.49998320  0.37498320  0.12501231
   0.62500000  0.24993160  0.12499174
   0.62500000  0.37504806  0.00000000
   0.50001976  0.25002499  0.25002499
   0.49998976  0.37498976  0.37498976
   0.62500000  0.24999570  0.37498830
   0.62500000  0.37498830  0.24999570
   0.49998830  0.24999570  0.50000000
   0.49998976  0.37498976  0.62501024
   0.62500000  0.24999570  0.62501170
   0.62500000  0.37500662  0.50000000
   0.50001976  0.25002499  0.74997501
   0.49998320  0.37498320  0.87498769
   0.62500000  0.24993160  0.87500826
   0.62500000  0.37498830  0.75000430
   0.50004806  0.50000000  0.00000000
   0.49998320  0.62501680  0.12501231
   0.62500000  0.50000000  0.12501349
   0.62500000  0.62495194  0.00000000
   0.49998830  0.50000000  0.24999570
   0.49998976  0.62501024  0.37498976
   0.62500000  0.50000000  0.37500662
   0.62500000  0.62501170  0.24999570
   0.50000662  0.50000000  0.50000000
   0.49998976  0.62501024  0.62501024
   0.62500000  0.50000000  0.62499338
   0.62500000  0.62499338  0.50000000
   0.49998830  0.50000000  0.75000430
   0.49998320  0.62501680  0.87498769
   0.62500000  0.50000000  0.87498651
   0.62500000  0.62501170  0.75000430
   0.49992270  0.75007270  0.00000000
   0.50001495  0.87504502  0.12495498
   0.62500000  0.75006840  0.12499174
   0.62500000  0.87503356  0.00000000
   0.50001976  0.74997501  0.25002499
   0.49998320  0.87498769  0.37498320
   0.62500000  0.75000430  0.37498830
   0.62500000  0.87500826  0.24993160
   0.49998830  0.75000430  0.50000000
   0.49998320  0.87498769  0.62501680
   0.62500000  0.75000430  0.62501170
   0.62500000  0.87498651  0.50000000
   0.50001976  0.74997501  0.74997501
   0.50001495  0.87504502  0.87504502
   0.62500000  0.75006840  0.87500826
   0.62500000  0.87500826  0.75006840
   0.75019367 -0.00000000  0.00000000
   0.74998505  0.12495498  0.12495498
   0.87480940 -0.00000000  0.12497510
   0.87480940  0.12497510  0.00000000
   0.75007730 -0.00000000  0.24992730
   0.75001680  0.12501231  0.37498320
   0.87507270 -0.00000000  0.37492270
   0.87506550  0.12499248  0.24993450
   0.74995194 -0.00000000  0.50000000
   0.75001680  0.12501231  0.62501680
   0.87507270 -0.00000000  0.62507730
   0.87506840  0.12499174  0.50000000
   0.75007730 -0.00000000  0.75007270
   0.74998505  0.12495498  0.87504502
   0.87480940 -0.00000000  0.87502490
   0.87506550  0.12499248  0.75006550
   0.75007730  0.24992730  0.00000000
   0.75001680  0.37498320  0.12501231
   0.87506550  0.24993450  0.12499248
   0.87507270  0.37492270  0.00000000
   0.74998024  0.25002499  0.25002499
   0.75001024  0.37498976  0.37498976
   0.87497501  0.25002499  0.37501976
   0.87497501  0.37501976  0.25002499
   0.75001170  0.24999570  0.50000000
   0.75001024  0.37498976  0.62501024
   0.87497501  0.25002499  0.62498024
   0.87500430  0.37498830  0.50000000
   0.74998024  0.25002499  0.74997501
   0.75001680  0.37498320  0.87498769
   0.87506550  0.24993450  0.87500752
   0.87497501  0.37501976  0.74997501
   0.74995194  0.50000000  0.00000000
   0.75001680  0.62501680  0.12501231
   0.87506840  0.50000000  0.12499174
   0.87507270  0.62507730  0.00000000
   0.75001170  0.50000000  0.24999570
   0.75001024  0.62501024  0.37498976
   0.87500430  0.50000000  0.37498830
   0.87497501  0.62498024  0.25002499
   0.74999338  0.50000000  0.50000000
   0.75001024  0.62501024  0.62501024
   0.87500430  0.50000000  0.62501170
   0.87500430  0.62501170  0.50000000
   0.75001170  0.50000000  0.75000430
   0.75001680  0.62501680  0.87498769
   0.87506840  0.50000000  0.87500826
   0.87497501  0.62498024  0.74997501
   0.75007730  0.75007270  0.00000000
   0.74998505  0.87504502  0.12495498
   0.87506550  0.75006550  0.12499248
   0.87480940  0.87502490  0.00000000
   0.74998024  0.74997501  0.25002499
   0.75001680  0.87498769  0.37498320
   0.87497501  0.74997501  0.37501976
   0.87506550  0.87500752  0.24993450
   0.75001170  0.75000430  0.50000000
   0.75001680  0.87498769  0.62501680
   0.87497501  0.74997501  0.62498024
   0.87506840  0.87500826  0.50000000
   0.74998024  0.74997501  0.74997501
   0.74998505  0.87504502  0.87504502
   0.87506550  0.75006550  0.87500752
   0.87506550  0.87500752  0.75006550
   0.12500000 -0.00000000  0.00000000
Direct configuration=     4
  -0.00482017 -0.00000000  0.00000000
   0.00051773  0.12448227  0.12448227
   0.12500000 -0.00000000  0.12982017
   0.12500000  0.12982017  0.00000000
   0.00002770 -0.00000000  0.25021203
   0.00005008  0.12494992  0.37501663
   0.12500000 -0.00000000  0.37478455
   0.12500000  0.12497230  0.25021203
   0.00003734 -0.00000000  0.50000000
   0.00005008  0.12494992  0.62498337