 254 254   0   0
  0.3019211E+02  0.1718057E-08  0.1718057E-08  0.3000000E-08  0.5000000E-15
   1.0000000000000000E-004
  CAR 
 NiAl                                    
      5.84376732    -30.65631989  301      1.83618422      1.00000000
    -30.656  0.0000E+00  0.0000E+00
    -30.535  0.0000E+00  0.0000E+00
    -30.413  0.0000E+00  0.0000E+00
    -30.291  0.0000E+00  0.0000E+00
    -30.170  0.0000E+00  0.0000E+00
    -30.048  0.0000E+00  0.0000E+00
    -29.926  0.0000E+00  0.0000E+00
    -29.805  0.0000E+00  0.0000E+00
    -29.683  0.0000E+00  0.0000E+00
    -29.561  0.0000E+00  0.0000E+00
    -29.440  0.0000E+00  0.0000E+00
    -29.318  0.0000E+00  0.0000E+00
    -29.196  0.1388E-06  0.1688E-07
    -29.075  0.2285E+00  0.2780E-01
    -28.953  0.1445E+02  0.1785E+01
    -28.831  0.1763E+01  0.2000E+01
    -28.710  0.2331E-04  0.2000E+01
    -28.588  0.0000E+00  0.2000E+01
    -28.466  0.0000E+00  0.2000E+01
    -28.345  0.0000E+00  0.2000E+01
    -28.223  0.0000E+00  0.2000E+01
    -28.101  0.0000E+00  0.2000E+01
    -27.980  0.0000E+00  0.2000E+01
    -27.858  0.0000E+00  0.2000E+01
    -27.736  0.0000E+00  0.2000E+01
    -27.615  0.0000E+00  0.2000E+01
    -27.493  0.0000E+00  0.2000E+01
    -27.371  0.0000E+00  0.2000E+01
    -27.250  0.0000E+00  0.2000E+01
    -27.128  0.0000E+00  0.2000E+01
    -27.006  0.0000E+00  0.2000E+01
    -26.885  0.0000E+00  0.2000E+01
    -26.763  0.0000E+00  0.2000E+01
    -26.641  0.0000E+00  0.2000E+01
    -26.520  0.0000E+00  0.2000E+01
    -26.398  0.0000E+00  0.2000E+01
    -26.276  0.0000E+00  0.2000E+01
    -26.155  0.0000E+00  0.2000E+01
    -26.033  0.0000E+00  0.2000E+01
    -25.911  0.0000E+00  0.2000E+01
    -25.790  0.0000E+00  0.2000E+01
    -25.668  0.0000E+00  0.2000E+01
    -25.546  0.0000E+00  0.2000E+01
    -25.425  0.0000E+00  0.2000E+01
    -25.303  0.0000E+00  0.2000E+01
    -25.181  0.0000E+00  0.2000E+01
    -25.060  0.0000E+00  0.2000E+01
    -24.938  0.0000E+00  0.2000E+01
    -24.816  0.0000E+00  0.2000E+01
    -24.695  0.0000E+00  0.2000E+01
    -24.573  0.0000E+00  0.2000E+01
    -24.451  0.0000E+00  0.2000E+01
    -24.330  0.0000E+00  0.2000E+01
    -24.208  0.0000E+00  0.2000E+01
    -24.086  0.0000E+00  0.2000E+01
    -23.965  0.0000E+00  0.2000E+01
    -23.843  0.0000E+00  0.2000E+01
    -23.721  0.0000E+00  0.2000E+01
    -23.600  0.0000E+00  0.2000E+01
    -23.478  0.0000E+00  0.2000E+01
    -23.356  0.0000E+00  0.2000E+01
    -23.235  0.0000E+00  0.2000E+01
    -23.113  0.0000E+00  0.2000E+01
    -22.991  0.0000E+00  0.2000E+01
    -22.870  0.0000E+00  0.2000E+01
    -22.748  0.0000E+00  0.2000E+01
    -22.626  0.0000E+00  0.2000E+01
    -22.505  0.0000E+00  0.2000E+01
    -22.383  0.0000E+00  0.2000E+01
    -22.261  0.0000E+00  0.2000E+01
    -22.140  0.0000E+00  0.2000E+01
    -22.018  0.0000E+00  0.2000E+01
    -21.896  0.0000E+00  0.2000E+01
    -21.775  0.0000E+00  0.2000E+01
    -21.653  0.0000E+00  0.2000E+01
    -21.531  0.0000E+00  0.2000E+01
    -21.410  0.0000E+00  0.2000E+01
    -21.288  0.0000E+00  0.2000E+01
    -21.166  0.0000E+00  0.2000E+01
    -21.045  0.0000E+00  0.2000E+01
    -20.923  0.0000E+00  0.2000E+01
    -20.801  0.0000E+00  0.2000E+01
    -20.680  0.0000E+00  0.2000E+01
    -20.558  0.0000E+00  0.2000E+01
    -20.436  0.0000E+00  0.2000E+01
    -20.315  0.0000E+00  0.2000E+01
    -20.193  0.0000E+00  0.2000E+01
    -20.071  0.0000E+00  0.2000E+01
    -19.950  0.0000E+00  0.2000E+01
    -19.828  0.0000E+00  0.2000E+01
    -19.706  0.0000E+00  0.2000E+01
    -19.585  0.0000E+00  0.2000E+01
    -19.463  0.0000E+00  0.2000E+01
    -19.341  0.0000E+00  0.2000E+01
    -19.220  0.0000E+00  0.2000E+01
    -19.098  0.0000E+00  0.2000E+01
    -18.976  0.0000E+00  0.2000E+01
    -18.855  0.0000E+00  0.2000E+01
    -18.733  0.0000E+00  0.2000E+01
    -18.611  0.0000E+00  0.2000E+01
    -18.490  0.0000E+00  0.2000E+01
    -18.368  0.0000E+00  0.2000E+01
    -18.246  0.0000E+00  0.2000E+01
    -18.125  0.0000E+00  0.2000E+01
    -18.003  0.0000E+00  0.2000E+01
    -17.881  0.4010E-12  0.2000E+01
    -17.760  0.3485E-03  0.2000E+01
    -17.638  0.4224E+01  0.2514E+01
    -17.516  0.1217E+02  0.3995E+01
    -17.395  0.4352E-01  0.4000E+01
    -17.273  0.3839E-08  0.4000E+01
    -17.151  0.0000E+00  0.4000E+01
    -17.030  0.0000E+00  0.4000E+01
    -16.908  0.0000E+00  0.4000E+01
    -16.786  0.0000E+00  0.4000E+01
    -16.665  0.0000E+00  0.4000E+01
    -16.543  0.0000E+00  0.4000E+01
    -16.421  0.0000E+00  0.4000E+01
    -16.300  0.0000E+00  0.4000E+01
    -16.178  0.0000E+00  0.4000E+01
    -16.056  0.0000E+00  0.4000E+01
    -15.935  0.0000E+00  0.4000E+01
    -15.813  0.0000E+00  0.4000E+01
    -15.691  0.0000E+00  0.4000E+01
    -15.570  0.0000E+00  0.4000E+01
    -15.448  0.0000E+00  0.4000E+01
    -15.326  0.0000E+00  0.4000E+01
    -15.205  0.0000E+00  0.4000E+01
    -15.083  0.0000E+00  0.4000E+01
    -14.961  0.0000E+00  0.4000E+01
    -14.840  0.0000E+00  0.4000E+01
    -14.718  0.0000E+00  0.4000E+01
    -14.596  0.0000E+00  0.4000E+01
    -14.475  0.0000E+00  0.4000E+01
    -14.353  0.0000E+00  0.4000E+01
    -14.231  0.0000E+00  0.4000E+01
    -14.110  0.0000E+00  0.4000E+01
    -13.988  0.0000E+00  0.4000E+01
    -13.866  0.0000E+00  0.4000E+01
    -13.745  0.0000E+00  0.4000E+01
    -13.623  0.0000E+00  0.4000E+01
    -13.501  0.0000E+00  0.4000E+01
    -13.380  0.0000E+00  0.4000E+01
    -13.258  0.0000E+00  0.4000E+01
    -13.136  0.0000E+00  0.4000E+01
    -13.015  0.0000E+00  0.4000E+01
    -12.893  0.0000E+00  0.4000E+01
    -12.771  0.0000E+00  0.4000E+01
    -12.650  0.0000E+00  0.4000E+01
    -12.528  0.0000E+00  0.4000E+01
    -12.406  0.0000E+00  0.4000E+01
    -12.285  0.0000E+00  0.4000E+01
    -12.163  0.0000E+00  0.4000E+01
    -12.041  0.0000E+00  0.4000E+01
    -11.920  0.0000E+00  0.4000E+01
    -11.798  0.0000E+00  0.4000E+01
    -11.676  0.0000E+00  0.4000E+01
    -11.555  0.9125E-15  0.4000E+01
    -11.433  0.8342E-05  0.4000E+01
    -11.311  0.1213E+01  0.4148E+01
    -11.190  0.1486E+02  0.5956E+01
    -11.068  0.1118E+02  0.7317E+01
    -10.946  0.5614E+01  0.8000E+01
    -10.825  0.9768E-03  0.8000E+01
    -10.703  0.2569E-11  0.8000E+01
    -10.581  0.0000E+00  0.8000E+01
    -10.460  0.0000E+00  0.8000E+01
    -10.338  0.0000E+00  0.8000E+01
    -10.216  0.0000E+00  0.8000E+01
    -10.095  0.0000E+00  0.8000E+01
     -9.973  0.0000E+00  0.8000E+01
     -9.851  0.0000E+00  0.8000E+01
     -9.730  0.0000E+00  0.8000E+01
     -9.608  0.1141E-09  0.8000E+01
     -9.486  0.7432E-02  0.8001E+01
     -9.365  0.9008E+01  0.9097E+01
     -9.243  0.7420E+01  0.1000E+02
     -9.121  0.4003E+00  0.1005E+02
     -9.000  0.3787E+01  0.1051E+02
     -8.878  0.1998E+02  0.1294E+02
     -8.756  0.5084E+01  0.1356E+02
     -8.635  0.5265E+01  0.1420E+02
     -8.513  0.4246E+02  0.1936E+02
     -8.391  0.2284E+02  0.2214E+02
     -8.270  0.8993E+01  0.2324E+02
     -8.148  0.2223E+02  0.2594E+02
     -8.026  0.2205E+02  0.2862E+02
     -7.905  0.4574E+02  0.3419E+02
     -7.783  0.3531E+02  0.3849E+02
     -7.661  0.7386E+00  0.3858E+02
     -7.540  0.7167E+02  0.4729E+02
     -7.418  0.3398E+02  0.5143E+02
     -7.296  0.1727E+02  0.5353E+02
     -7.175  0.2660E+02  0.5677E+02
     -7.053  0.3760E+02  0.6134E+02
     -6.931  0.4601E+02  0.6694E+02
     -6.810  0.6652E+02  0.7503E+02
     -6.688  0.4282E+02  0.8024E+02
     -6.566  0.6061E+02  0.8762E+02
     -6.445  0.5210E+02  0.9396E+02
     -6.323  0.1676E+02  0.9600E+02
     -6.201  0.1791E+01  0.9621E+02
     -6.080  0.5950E+02  0.1035E+03
     -5.958  0.8715E+02  0.1141E+03
     -5.836  0.7643E+02  0.1234E+03
     -5.715  0.2988E+02  0.1270E+03
     -5.593  0.8082E+02  0.1368E+03
     -5.471  0.6584E+02  0.1448E+03
     -5.350  0.2254E+02  0.1476E+03
     -5.228  0.6140E+02  0.1550E+03
     -5.106  0.4556E+02  0.1606E+03
     -4.985  0.7707E+02  0.1700E+03
     -4.863  0.6547E+02  0.1779E+03
     -4.741  0.3370E+02  0.1820E+03
     -4.620  0.8638E+02  0.1925E+03
     -4.498  0.8021E+02  0.2023E+03
     -4.376  0.5468E+02  0.2090E+03
     -4.255  0.5007E+02  0.2150E+03
     -4.133  0.8102E+02  0.2249E+03
     -4.011  0.1084E+03  0.2381E+03
     -3.890  0.6497E+02  0.2460E+03
     -3.768  0.5987E+02  0.2533E+03
     -3.646  0.7787E+02  0.2628E+03
     -3.525  0.6969E+02  0.2712E+03
     -3.403  0.5438E+02  0.2778E+03
     -3.281  0.1642E+02  0.2798E+03
     -3.160  0.7009E+02  0.2884E+03
     -3.038  0.8711E+02  0.2990E+03
     -2.916  0.1025E+03  0.3114E+03
     -2.795  0.1175E+03  0.3257E+03
     -2.673  0.1659E+03  0.3459E+03
     -2.551  0.5075E+02  0.3521E+03
     -2.430  0.1746E+02  0.3542E+03
     -2.308  0.5804E+02  0.3613E+03
     -2.186  0.1144E+03  0.3752E+03
     -2.065  0.8513E+02  0.3856E+03
     -1.943  0.6660E+02  0.3937E+03
     -1.821  0.7510E+02  0.4028E+03
     -1.700  0.1378E+03  0.4196E+03
     -1.578  0.5740E+02  0.4265E+03
     -1.456  0.7379E+02  0.4355E+03
     -1.335  0.6802E+02  0.4438E+03
     -1.213  0.1595E+03  0.4632E+03
     -1.091  0.1079E+03  0.4763E+03
     -0.970  0.7232E+02  0.4851E+03
     -0.848  0.8528E+02  0.4955E+03
     -0.726  0.1215E+03  0.5103E+03
     -0.605  0.6527E+02  0.5182E+03
     -0.483  0.5004E+02  0.5243E+03
     -0.361  0.1642E+03  0.5443E+03
     -0.240  0.1103E+03  0.5577E+03
     -0.118  0.1162E+03  0.5719E+03
      0.004  0.4848E+02  0.5778E+03
      0.125  0.8964E+02  0.5887E+03
      0.247  0.7327E+02  0.5976E+03
      0.369  0.9150E+02  0.6087E+03
      0.490  0.8701E+02  0.6193E+03
      0.612  0.1247E+03  0.6345E+03
      0.734  0.6646E+02  0.6426E+03
      0.855  0.4206E+02  0.6477E+03
      0.977  0.1018E+03  0.6601E+03
      1.099  0.2210E+03  0.6870E+03
      1.220  0.1120E+03  0.7006E+03
      1.342  0.7257E+02  0.7094E+03
      1.464  0.7588E+02  0.7186E+03
      1.585  0.1109E+03  0.7321E+03
      1.707  0.1712E+03  0.7530E+03
      1.829  0.1203E+03  0.7676E+03
      1.950  0.4553E+02  0.7731E+03
      2.072  0.1504E+03  0.7914E+03
      2.194  0.8458E+02  0.8017E+03
      2.315  0.8153E+02  0.8116E+03
      2.437  0.7432E+02  0.8207E+03
      2.559  0.9570E+02  0.8323E+03
      2.680  0.1295E+03  0.8481E+03
      2.802  0.8622E+02  0.8586E+03
      2.924  0.9944E+02  0.8707E+03
      3.045  0.2760E+03  0.9043E+03
      3.167  0.1056E+03  0.9171E+03
      3.289  0.7798E+02  0.9266E+03
      3.410  0.1208E+03  0.9413E+03
      3.532  0.1375E+03  0.9580E+03
      3.654  0.8359E+02  0.9682E+03
      3.775  0.1078E+03  0.9813E+03
      3.897  0.7806E+02  0.9908E+03
      4.019  0.1490E+03  0.1009E+04
      4.140  0.1076E+03  0.1022E+04
      4.262  0.1613E+02  0.1024E+04
      4.384  0.9843E-01  0.1024E+04
      4.505  0.4385E-07  0.1024E+04
      4.627  0.0000E+00  0.1024E+04
      4.749  0.0000E+00  0.1024E+04
      4.870  0.0000E+00  0.1024E+04
      4.992  0.0000E+00  0.1024E+04
      5.114  0.0000E+00  0.1024E+04
      5.235  0.0000E+00  0.1024E+04
      5.357  0.0000E+00  0.1024E+04
      5.479  0.0000E+00  0.1024E+04
      5.600  0.0000E+00  0.1024E+04
      5.722  0.0000E+00  0.1024E+04
      5.844  0.0000E+00  0.1024E+04
