 254 254   0   0
  0.2268316E+02  0.1514622E-08  0.1514622E-08  0.2900000E-08  0.5000000E-15
   1.0000000000000000E-004
  CAR 
 NiAl                                    
      6.09787034    -26.85409561  301     -0.59830404      1.00000000
    -26.854  0.0000E+00  0.0000E+00
    -26.744  0.0000E+00  0.0000E+00
    -26.634  0.0000E+00  0.0000E+00
    -26.525  0.0000E+00  0.0000E+00
    -26.415  0.0000E+00  0.0000E+00
    -26.305  0.0000E+00  0.0000E+00
    -26.195  0.0000E+00  0.0000E+00
    -26.085  0.0000E+00  0.0000E+00
    -25.975  0.0000E+00  0.0000E+00
    -25.866  0.0000E+00  0.0000E+00
    -25.756  0.0000E+00  0.0000E+00
    -25.646  0.2022E-14  0.2220E-15
    -25.536  0.3257E-05  0.3578E-06
    -25.426  0.4308E+00  0.4732E-01
    -25.316  0.1540E+02  0.1739E+01
    -25.206  0.2379E+01  0.2000E+01
    -25.097  0.2128E-03  0.2000E+01
    -24.987  0.1993E-11  0.2000E+01
    -24.877  0.0000E+00  0.2000E+01
    -24.767  0.0000E+00  0.2000E+01
    -24.657  0.0000E+00  0.2000E+01
    -24.547  0.0000E+00  0.2000E+01
    -24.438  0.0000E+00  0.2000E+01
    -24.328  0.0000E+00  0.2000E+01
    -24.218  0.0000E+00  0.2000E+01
    -24.108  0.0000E+00  0.2000E+01
    -23.998  0.0000E+00  0.2000E+01
    -23.888  0.0000E+00  0.2000E+01
    -23.779  0.0000E+00  0.2000E+01
    -23.669  0.0000E+00  0.2000E+01
    -23.559  0.0000E+00  0.2000E+01
    -23.449  0.0000E+00  0.2000E+01
    -23.339  0.0000E+00  0.2000E+01
    -23.229  0.0000E+00  0.2000E+01
    -23.120  0.0000E+00  0.2000E+01
    -23.010  0.0000E+00  0.2000E+01
    -22.900  0.0000E+00  0.2000E+01
    -22.790  0.0000E+00  0.2000E+01
    -22.680  0.0000E+00  0.2000E+01
    -22.570  0.0000E+00  0.2000E+01
    -22.461  0.0000E+00  0.2000E+01
    -22.351  0.0000E+00  0.2000E+01
    -22.241  0.0000E+00  0.2000E+01
    -22.131  0.0000E+00  0.2000E+01
    -22.021  0.0000E+00  0.2000E+01
    -21.911  0.0000E+00  0.2000E+01
    -21.801  0.0000E+00  0.2000E+01
    -21.692  0.0000E+00  0.2000E+01
    -21.582  0.0000E+00  0.2000E+01
    -21.472  0.0000E+00  0.2000E+01
    -21.362  0.0000E+00  0.2000E+01
    -21.252  0.0000E+00  0.2000E+01
    -21.142  0.0000E+00  0.2000E+01
    -21.033  0.0000E+00  0.2000E+01
    -20.923  0.0000E+00  0.2000E+01
    -20.813  0.0000E+00  0.2000E+01
    -20.703  0.0000E+00  0.2000E+01
    -20.593  0.0000E+00  0.2000E+01
    -20.483  0.0000E+00  0.2000E+01
    -20.374  0.0000E+00  0.2000E+01
    -20.264  0.0000E+00  0.2000E+01
    -20.154  0.0000E+00  0.2000E+01
    -20.044  0.0000E+00  0.2000E+01
    -19.934  0.0000E+00  0.2000E+01
    -19.824  0.0000E+00  0.2000E+01
    -19.715  0.0000E+00  0.2000E+01
    -19.605  0.0000E+00  0.2000E+01
    -19.495  0.0000E+00  0.2000E+01
    -19.385  0.0000E+00  0.2000E+01
    -19.275  0.0000E+00  0.2000E+01
    -19.165  0.0000E+00  0.2000E+01
    -19.055  0.0000E+00  0.2000E+01
    -18.946  0.0000E+00  0.2000E+01
    -18.836  0.0000E+00  0.2000E+01
    -18.726  0.0000E+00  0.2000E+01
    -18.616  0.0000E+00  0.2000E+01
    -18.506  0.0000E+00  0.2000E+01
    -18.396  0.0000E+00  0.2000E+01
    -18.287  0.0000E+00  0.2000E+01
    -18.177  0.0000E+00  0.2000E+01
    -18.067  0.0000E+00  0.2000E+01
    -17.957  0.0000E+00  0.2000E+01
    -17.847  0.0000E+00  0.2000E+01
    -17.737  0.0000E+00  0.2000E+01
    -17.628  0.0000E+00  0.2000E+01
    -17.518  0.0000E+00  0.2000E+01
    -17.408  0.0000E+00  0.2000E+01
    -17.298  0.0000E+00  0.2000E+01
    -17.188  0.0000E+00  0.2000E+01
    -17.078  0.0000E+00  0.2000E+01
    -16.969  0.0000E+00  0.2000E+01
    -16.859  0.0000E+00  0.2000E+01
    -16.749  0.0000E+00  0.2000E+01
    -16.639  0.0000E+00  0.2000E+01
    -16.529  0.0000E+00  0.2000E+01
    -16.419  0.0000E+00  0.2000E+01
    -16.309  0.0000E+00  0.2000E+01
    -16.200  0.0000E+00  0.2000E+01
    -16.090  0.0000E+00  0.2000E+01
    -15.980  0.0000E+00  0.2000E+01
    -15.870  0.0000E+00  0.2000E+01
    -15.760  0.0000E+00  0.2000E+01
    -15.650  0.0000E+00  0.2000E+01
    -15.541  0.0000E+00  0.2000E+01
    -15.431  0.0000E+00  0.2000E+01
    -15.321  0.0000E+00  0.2000E+01
    -15.211  0.0000E+00  0.2000E+01
    -15.101  0.0000E+00  0.2000E+01
    -14.991  0.0000E+00  0.2000E+01
    -14.882  0.7070E-07  0.2000E+01
    -14.772  0.6973E-01  0.2008E+01
    -14.662  0.1213E+02  0.3340E+01
    -14.552  0.6005E+01  0.4000E+01
    -14.442  0.3551E-02  0.4000E+01
    -14.332  0.2606E-09  0.4000E+01
    -14.223  0.0000E+00  0.4000E+01
    -14.113  0.0000E+00  0.4000E+01
    -14.003  0.0000E+00  0.4000E+01
    -13.893  0.0000E+00  0.4000E+01
    -13.783  0.0000E+00  0.4000E+01
    -13.673  0.0000E+00  0.4000E+01
    -13.563  0.0000E+00  0.4000E+01
    -13.454  0.0000E+00  0.4000E+01
    -13.344  0.0000E+00  0.4000E+01
    -13.234  0.0000E+00  0.4000E+01
    -13.124  0.0000E+00  0.4000E+01
    -13.014  0.0000E+00  0.4000E+01
    -12.904  0.0000E+00  0.4000E+01
    -12.795  0.0000E+00  0.4000E+01
    -12.685  0.0000E+00  0.4000E+01
    -12.575  0.0000E+00  0.4000E+01
    -12.465  0.0000E+00  0.4000E+01
    -12.355  0.0000E+00  0.4000E+01
    -12.245  0.0000E+00  0.4000E+01
    -12.136  0.0000E+00  0.4000E+01
    -12.026  0.0000E+00  0.4000E+01
    -11.916  0.0000E+00  0.4000E+01
    -11.806  0.0000E+00  0.4000E+01
    -11.696  0.0000E+00  0.4000E+01
    -11.586  0.0000E+00  0.4000E+01
    -11.477  0.0000E+00  0.4000E+01
    -11.367  0.0000E+00  0.4000E+01
    -11.257  0.0000E+00  0.4000E+01
    -11.147  0.0000E+00  0.4000E+01
    -11.037  0.0000E+00  0.4000E+01
    -10.927  0.0000E+00  0.4000E+01
    -10.817  0.0000E+00  0.4000E+01
    -10.708  0.0000E+00  0.4000E+01
    -10.598  0.0000E+00  0.4000E+01
    -10.488  0.0000E+00  0.4000E+01
    -10.378  0.0000E+00  0.4000E+01
    -10.268  0.0000E+00  0.4000E+01
    -10.158  0.0000E+00  0.4000E+01
    -10.049  0.0000E+00  0.4000E+01
     -9.939  0.0000E+00  0.4000E+01
     -9.829  0.0000E+00  0.4000E+01
     -9.719  0.0000E+00  0.4000E+01
     -9.609  0.0000E+00  0.4000E+01
     -9.499  0.0000E+00  0.4000E+01
     -9.390  0.1221E-09  0.4000E+01
     -9.280  0.1258E-02  0.4000E+01
     -9.170  0.1657E+01  0.4182E+01
     -9.060  0.2883E+01  0.4499E+01
     -8.950  0.6692E+01  0.5234E+01
     -8.840  0.2042E+02  0.7476E+01
     -8.731  0.2233E+00  0.7501E+01
     -8.621  0.2643E+01  0.7791E+01
     -8.511  0.5528E+01  0.8398E+01
     -8.401  0.3674E+02  0.1243E+02
     -8.291  0.1755E+02  0.1436E+02
     -8.181  0.2331E+02  0.1692E+02
     -8.071  0.7373E+00  0.1700E+02
     -7.962  0.1259E+02  0.1839E+02
     -7.852  0.1501E+02  0.2003E+02
     -7.742  0.1822E+02  0.2203E+02
     -7.632  0.2732E+02  0.2504E+02
     -7.522  0.6606E+02  0.3229E+02
     -7.412  0.1914E+01  0.3250E+02
     -7.303  0.8486E+01  0.3343E+02
     -7.193  0.3221E+02  0.3697E+02
     -7.083  0.7945E+02  0.4570E+02
     -6.973  0.1575E+02  0.4743E+02
     -6.863  0.1878E+02  0.4949E+02
     -6.753  0.1454E+02  0.5109E+02
     -6.644  0.2220E+02  0.5353E+02
     -6.534  0.4380E+02  0.5834E+02
     -6.424  0.6616E+02  0.6560E+02
     -6.314  0.8384E+02  0.7481E+02
     -6.204  0.1409E+02  0.7636E+02
     -6.094  0.4884E+02  0.8172E+02
     -5.985  0.9730E+02  0.9241E+02
     -5.875  0.3259E+02  0.9599E+02
     -5.765  0.1346E+01  0.9614E+02
     -5.655  0.1358E+02  0.9763E+02
     -5.545  0.5074E+02  0.1032E+03
     -5.435  0.1472E+03  0.1194E+03
     -5.325  0.5264E+02  0.1252E+03
     -5.216  0.7184E+02  0.1330E+03
     -5.106  0.1106E+03  0.1452E+03
     -4.996  0.1009E+03  0.1563E+03
     -4.886  0.3533E+02  0.1602E+03
     -4.776  0.2018E+03  0.1823E+03
     -4.666  0.1856E+03  0.2027E+03
     -4.557  0.2201E+03  0.2269E+03
     -4.447  0.2344E+03  0.2526E+03
     -4.337  0.3010E+03  0.2857E+03
     -4.227  0.2351E+03  0.3115E+03
     -4.117  0.2183E+03  0.3355E+03
     -4.007  0.3779E+03  0.3770E+03
     -3.898  0.4317E+03  0.4244E+03
     -3.788  0.5085E+03  0.4803E+03
     -3.678  0.4035E+03  0.5246E+03
     -3.568  0.4781E+03  0.5771E+03
     -3.458  0.3685E+03  0.6176E+03
     -3.348  0.3344E+03  0.6543E+03
     -3.239  0.4094E+03  0.6993E+03
     -3.129  0.5233E+03  0.7568E+03
     -3.019  0.3722E+03  0.7977E+03
     -2.909  0.5178E+03  0.8545E+03
     -2.799  0.5603E+03  0.9161E+03
     -2.689  0.5059E+03  0.9716E+03
     -2.579  0.5357E+03  0.1030E+04
     -2.470  0.6714E+03  0.1104E+04
     -2.360  0.7256E+03  0.1184E+04
     -2.250  0.9187E+03  0.1285E+04
     -2.140  0.7806E+03  0.1371E+04
     -2.030  0.9269E+03  0.1472E+04
     -1.920  0.7703E+03  0.1557E+04
     -1.811  0.5689E+03  0.1619E+04
     -1.701  0.5756E+03  0.1683E+04
     -1.591  0.5314E+03  0.1741E+04
     -1.481  0.6367E+03  0.1811E+04
     -1.371  0.8272E+03  0.1902E+04
     -1.261  0.6044E+03  0.1968E+04
     -1.152  0.5991E+03  0.2034E+04
     -1.042  0.7605E+03  0.2118E+04
     -0.932  0.8822E+03  0.2215E+04
     -0.822  0.6373E+03  0.2285E+04
     -0.712  0.9180E+03  0.2385E+04
     -0.602  0.1289E+04  0.2527E+04
     -0.493  0.9092E+03  0.2627E+04
     -0.383  0.3189E+03  0.2662E+04
     -0.273  0.1342E+03  0.2677E+04
     -0.163  0.1376E+03  0.2692E+04
     -0.053  0.1723E+03  0.2711E+04
      0.057  0.8202E+02  0.2720E+04
      0.167  0.5641E+02  0.2726E+04
      0.276  0.2590E+02  0.2729E+04
      0.386  0.1147E+03  0.2741E+04
      0.496  0.8432E+02  0.2751E+04
      0.606  0.1037E+03  0.2762E+04
      0.716  0.6769E+02  0.2769E+04
      0.826  0.1161E+03  0.2782E+04
      0.935  0.1454E+03  0.2798E+04
      1.045  0.3712E+02  0.2802E+04
      1.155  0.2990E+02  0.2805E+04
      1.265  0.1307E+03  0.2820E+04
      1.375  0.3603E+02  0.2824E+04
      1.485  0.4773E+02  0.2829E+04
      1.594  0.1115E+03  0.2841E+04
      1.704  0.8402E+02  0.2850E+04
      1.814  0.7788E+02  0.2859E+04
      1.924  0.1059E+03  0.2871E+04
      2.034  0.3729E+02  0.2875E+04
      2.144  0.7457E+02  0.2883E+04
      2.253  0.1278E+03  0.2897E+04
      2.363  0.7651E+02  0.2905E+04
      2.473  0.3207E+02  0.2909E+04
      2.583  0.6097E+02  0.2916E+04
      2.693  0.1792E+02  0.2918E+04
      2.803  0.2793E+02  0.2921E+04
      2.913  0.7035E+02  0.2928E+04
      3.022  0.2096E+03  0.2951E+04
      3.132  0.1217E+03  0.2965E+04
      3.242  0.1947E+02  0.2967E+04
      3.352  0.2405E+02  0.2970E+04
      3.462  0.1195E+03  0.2983E+04
      3.572  0.1253E+02  0.2984E+04
      3.681  0.8944E+02  0.2994E+04
      3.791  0.1548E+02  0.2996E+04
      3.901  0.2212E+02  0.2998E+04
      4.011  0.7170E+01  0.2999E+04
      4.121  0.6317E+02  0.3006E+04
      4.231  0.2513E+02  0.3008E+04
      4.340  0.6298E+02  0.3015E+04
      4.450  0.8517E+02  0.3025E+04
      4.560  0.6287E+02  0.3032E+04
      4.670  0.5744E+02  0.3038E+04
      4.780  0.4724E+00  0.3038E+04
      4.890  0.2557E-05  0.3038E+04
      4.999  0.1516E-14  0.3038E+04
      5.109  0.0000E+00  0.3038E+04
      5.219  0.0000E+00  0.3038E+04
      5.329  0.0000E+00  0.3038E+04
      5.439  0.0000E+00  0.3038E+04
      5.549  0.0000E+00  0.3038E+04
      5.659  0.0000E+00  0.3038E+04
      5.768  0.0000E+00  0.3038E+04
      5.878  0.0000E+00  0.3038E+04
      5.988  0.0000E+00  0.3038E+04
      6.098  0.0000E+00  0.3038E+04
