  254  254    1    1
  0.2268316E+02  0.1514622E-08  0.1514622E-08  0.2900000E-08  0.5000000E-15
   1.0000000000000000E-004
  CAR 
 NiAl                                    
   2532      4   1519
 
  0.1262379E-14  0.1262379E-14  0.1262379E-14  0.2500000E+00
    1      -25.356279   1.000000
    2      -14.677482   1.000000
    3       -9.157605   1.000000
    4       -8.628029   1.000000
    5       -8.249870   1.000000
    6       -8.249856   1.000000
    7       -8.249843   1.000000
    8       -8.249823   1.000000
    9       -8.249816   1.000000
   10       -8.249779   1.000000
   11       -7.799112   1.000000
   12       -7.743787   1.000000
   13       -7.743772   1.000000
   14       -7.743757   1.000000
   15       -7.743744   1.000000
   16       -7.743730   1.000000
   17       -7.743680   1.000000
   18       -7.300808   1.000000
   19       -6.955512   1.000000
   20       -6.955497   1.000000
   21       -6.955478   1.000000
   22       -6.955431   1.000000
   23       -6.955419   1.000000
   24       -6.955346   1.000000
   25       -6.768819   1.000000
   26       -6.609417   1.000000
   27       -6.609416   1.000000
   28       -6.609403   1.000000
   29       -6.609394   1.000000
   30       -6.609377   1.000000
   31       -6.609368   1.000000
   32       -6.415875   1.000000
   33       -6.415235   1.000000
   34       -6.186717   1.000000
   35       -6.186715   1.000000
   36       -6.186700   1.000000
   37       -6.186693   1.000000
   38       -6.186675   1.000000
   39       -6.186669   1.000000
   40       -5.983671   1.000000
   41       -5.983658   1.000000
   42       -5.983631   1.000000
   43       -5.983553   1.000000
   44       -5.983534   1.000000
   45       -5.983431   1.000000
   46       -5.978774   1.000000
   47       -5.978769   1.000000
   48       -5.978765   1.000000
   49       -5.978763   1.000000
   50       -5.978756   1.000000
   51       -5.978753   1.000000
   52       -5.744026   1.000000
   53       -5.643714   1.000000
   54       -5.643712   1.000000
   55       -5.643702   1.000000
   56       -5.643699   1.000000
   57       -5.643689   1.000000
   58       -5.643686   1.000000
   59       -5.553591   1.000000
   60       -5.553590   1.000000
   61       -5.553578   1.000000
   62       -5.553567   1.000000
   63       -5.553555   1.000000
   64       -5.553547   1.000000
   65       -5.186309   1.000000
   66       -5.186305   1.000000
   67       -5.186297   1.000000
   68       -5.186293   1.000000
   69       -5.186275   1.000000
   70       -5.186261   1.000000
   71       -5.088667   1.000000
   72       -5.032875   1.000000
   73       -5.032870   1.000000
   74       -5.032836   1.000000
   75       -5.032731   1.000000
   76       -5.032713   1.000000
   77       -5.032608   1.000000
   78       -4.898639   1.000000
   79       -4.840970   1.000000
   80       -4.840970   1.000000
   81       -4.840910   1.000000
   82       -4.822430   1.000000
   83       -4.822423   1.000000
   84       -4.822416   1.000000
   85       -4.822402   1.000000
   86       -4.822395   1.000000
   87       -4.822387   1.000000
   88       -4.718488   1.000000
   89       -4.718486   1.000000
   90       -4.718481   1.000000
   91       -4.718479   1.000000
   92       -4.718417   1.000000
   93       -4.718412   1.000000
   94       -4.684882   1.000000
   95       -4.684881   1.000000
   96       -4.684785   1.000000
   97       -4.608768   1.000000
   98       -4.608761   1.000000
   99       -4.608759   1.000000
  100       -4.608754   1.000000
  101       -4.608728   1.000000
  102       -4.608711   1.000000
  103       -4.608705   1.000000
  104       -4.608703   1.000000
  105       -4.608692   1.000000
  106       -4.608684   1.000000
  107       -4.608683   1.000000
  108       -4.608670   1.000000
  109       -4.562903   1.000000
  110       -4.562903   1.000000
  111       -4.562835   1.000000
  112       -4.476500   1.000000
  113       -4.476499   1.000000
  114       -4.476399   1.000000
  115       -4.454790   1.000000
  116       -4.454771   1.000000
  117       -4.454744   1.000000
  118       -4.454690   1.000000
  119       -4.454658   1.000000
  120       -4.454565   1.000000
  121       -4.410278   1.000000
  122       -4.410267   1.000000
  123       -4.410261   1.000000
  124       -4.410258   1.000000
  125       -4.410244   1.000000
  126       -4.410235   1.000000
  127       -4.410224   1.000000
  128       -4.410206   1.000000
  129       -4.410201   1.000000
  130       -4.410193   1.000000
  131       -4.410184   1.000000
  132       -4.410175   1.000000
  133       -4.375799   1.000000
  134       -4.375785   1.000000
  135       -4.375776   1.000000
  136       -4.375773   1.000000
  137       -4.375759   1.000000
  138       -4.375747   1.000000
  139       -4.375738   1.000000
  140       -4.375732   1.000000
  141       -4.375725   1.000000
  142       -4.375720   1.000000
  143       -4.375705   1.000000
  144       -4.375675   1.000000
  145       -4.330972   1.000000
  146       -4.330942   1.000000
  147       -4.330918   1.000000
  148       -4.330896   1.000000
  149       -4.330881   1.000000
  150       -4.330816   1.000000
  151       -4.294651   1.000000
  152       -4.294644   1.000000
  153       -4.294639   1.000000
  154       -4.294632   1.000000
  155       -4.294536   1.000000
  156       -4.294528   1.000000
  157       -4.274759   1.000000
  158       -4.274759   1.000000
  159       -4.274655   1.000000
  160       -4.237754   1.000000
  161       -4.237745   1.000000
  162       -4.237734   1.000000
  163       -4.237734   1.000000
  164       -4.237720   1.000000
  165       -4.237715   1.000000
  166       -4.237707   1.000000
  167       -4.237695   1.000000
  168       -4.237693   1.000000
  169       -4.237682   1.000000
  170       -4.237669   1.000000
  171       -4.237653   1.000000
  172       -4.167717   1.000000
  173       -4.167711   1.000000
  174       -4.167699   1.000000
  175       -4.167687   1.000000
  176       -4.167671   1.000000
  177       -4.167668   1.000000
  178       -4.128524   1.000000
  179       -4.128524   1.000000
  180       -4.128354   1.000000
  181       -4.060238   1.000000
  182       -4.060238   1.000000
  183       -4.060126   1.000000
  184       -4.037803   1.000000
  185       -4.037789   1.000000
  186       -4.037777   1.000000
  187       -4.037774   1.000000
  188       -4.037771   1.000000
  189       -4.037767   1.000000
  190       -4.037755   1.000000
  191       -4.037736   1.000000
  192       -4.037733   1.000000
  193       -4.037720   1.000000
  194       -4.037706   1.000000
  195       -4.037697   1.000000
  196       -3.974795   1.000000
  197       -3.974793   1.000000
  198       -3.974656   1.000000
  199       -3.920342   1.000000
  200       -3.920341   1.000000
  201       -3.920193   1.000000
  202       -3.917932   1.000000
  203       -3.917929   1.000000
  204       -3.917924   1.000000
  205       -3.917923   1.000000
  206       -3.917783   1.000000
  207       -3.917776   1.000000
  208       -3.848579   1.000000
  209       -3.848569   1.000000
  210       -3.848552   1.000000
  211       -3.848547   1.000000
  212       -3.848537   1.000000
  213       -3.848536   1.000000
  214       -3.848516   1.000000
  215       -3.848510   1.000000
  216       -3.848405   1.000000
  217       -3.848369   1.000000
  218       -3.848341   1.000000
  219       -3.848308   1.000000
  220       -3.842409   1.000000
  221       -3.842402   1.000000
  222       -3.842389   1.000000
  223       -3.842385   1.000000
  224       -3.842264   1.000000
  225       -3.842242   1.000000
  226       -3.789403   1.000000
  227       -3.789389   1.000000
  228       -3.789387   1.000000
  229       -3.789378   1.000000
  230       -3.789355   1.000000
  231       -3.789355   1.000000
  232       -3.789345   1.000000
  233       -3.789335   1.000000
  234       -3.789322   1.000000
  235       -3.789308   1.000000
  236       -3.789304   1.000000
  237       -3.789288   1.000000
  238       -3.766421   1.000000
  239       -3.766415   1.000000
  240       -3.766373   1.000000
  241       -3.766364   1.000000
  242       -3.766347   1.000000
  243       -3.766345   1.000000
  244       -3.727009   1.000000
  245       -3.726999   1.000000
  246       -3.726988   1.000000
  247       -3.726986   1.000000
  248       -3.726893   1.000000
  249       -3.726883   1.000000
  250       -3.723120   1.000000
  251       -3.723114   1.000000
  252       -3.723058   1.000000
  253       -3.723055   1.000000
  254       -3.714882   1.000000
  255       -3.714878   1.000000
  256       -3.660378   1.000000
  257       -3.660358   1.000000
  258       -3.660355   1.000000
  259       -3.660350   1.000000
  260       -3.660345   1.000000
  261       -3.660336   1.000000
  262       -3.660329   1.000000
  263       -3.660306   1.000000
  264       -3.660208   1.000000
  265       -3.660182   1.000000
  266       -3.660180   1.000000
  267       -3.660142   1.000000
  268       -3.651579   1.000000
  269       -3.651579   1.000000
  270       -3.651476   1.000000
  271       -3.627131   1.000000
  272       -3.627128   1.000000
  273       -3.627121   1.000000
  274       -3.627119   1.000000
  275       -3.604873   1.000000
  276       -3.604865   1.000000
  277       -3.604851   1.000000
  278       -3.604841   1.000000
  279       -3.604679   1.000000
  280       -3.604661   1.000000
  281       -3.593484   1.000000
  282       -3.593484   1.000000
  283       -3.583191   1.000000
  284       -3.583186   1.000000
  285       -3.583112   1.000000
  286       -3.583109   1.000000
  287       -3.581348   1.000000
  288       -3.581347   1.000000
  289       -3.578126   1.000000
  290       -3.578125   1.000000
  291       -3.578097   1.000000
  292       -3.578094   1.000000
  293       -3.578068   1.000000
  294       -3.578063   1.000000
  295       -3.509371   1.000000
  296       -3.509371   1.000000
  297       -3.509337   1.000000
  298       -3.509328   1.000000
  299       -3.501925   1.000000
  300       -3.501921   1.000000
  301       -3.501911   1.000000
  302       -3.501910   1.000000
  303       -3.501838   1.000000
  304       -3.501832   1.000000
  305       -3.501825   1.000000
  306       -3.501820   1.000000
  307       -3.501805   1.000000
  308       -3.501797   1.000000
  309       -3.501778   1.000000
  310       -3.501773   1.000000
  311       -3.430357   1.000000
  312       -3.430353   1.000000
  313       -3.430298   1.000000
  314       -3.430296   1.000000
  315       -3.430271   1.000000
  316       -3.430270   1.000000
  317       -3.394176   1.000000
  318       -3.394167   1.000000
  319       -3.394159   1.000000
  320       -3.394152   1.000000
  321       -3.394133   1.000000
  322       -3.394130   1.000000
  323       -3.394117   1.000000
  324       -3.394109   1.000000
  325       -3.394024   1.000000
  326       -3.394011   1.000000
  327       -3.394003   1.000000
  328       -3.393984   1.000000
  329       -3.383631   1.000000
  330       -3.383622   1.000000
  331       -3.383566   1.000000
  332       -3.383559   1.000000
  333       -3.383540   1.000000
  334       -3.383536   1.000000
  335       -3.376394   1.000000
  336       -3.376390   1.000000
  337       -3.376373   1.000000
  338       -3.376361   1.000000
  339       -3.376267   1.000000
  340       -3.376243   1.000000
  341       -3.288527   1.000000
  342       -3.288525   1.000000
  343       -3.288497   1.000000
  344       -3.248606   1.000000
  345       -3.248601   1.000000
  346       -3.248535   1.000000
  347       -3.248533   1.000000
  348       -3.248515   1.000000
  349       -3.248509   1.000000
  350       -3.237127   1.000000
  351       -3.237124   1.000000
  352       -3.214203   1.000000
  353       -3.214201   1.000000
  354       -3.214190   1.000000
  355       -3.214179   1.000000
  356       -3.214144   1.000000
  357       -3.214137   1.000000
  358       -3.214131   1.000000
  359       -3.214118   1.000000
  360       -3.214100   1.000000
  361       -3.214094   1.000000
  362       -3.214090   1.000000
  363       -3.214079   1.000000
  364       -3.204774   1.000000
  365       -3.204771   1.000000
  366       -3.143100   1.000000
  367       -3.143093   1.000000
  368       -3.143071   1.000000
  369       -3.143061   1.000000
  370       -3.143037   1.000000
  371       -3.143007   1.000000
  372       -3.117667   1.000000
  373       -3.117659   1.000000
  374       -3.117579   1.000000
  375       -3.117575   1.000000
  376       -3.117559   1.000000
  377       -3.117557   1.000000
  378       -3.117211   1.000000
  379       -3.117198   1.000000
  380       -3.117176   1.000000
  381       -3.117160   1.000000
  382       -3.117099   1.000000
  383       -3.117069   1.000000
  384       -3.065611   1.000000
  385       -3.065610   1.000000
  386       -3.065587   1.000000
  387       -3.065578   1.000000
  388       -3.065565   1.000000
  389       -3.065558   1.000000
  390       -3.065555   1.000000
  391       -3.065551   1.000000
  392       -3.065540   1.000000
  393       -3.065531   1.000000
  394       -3.065527   1.000000
  395       -3.065521   1.000000
  396       -3.010373   1.000000
  397       -3.010371   1.000000
  398       -3.010280   1.000000
  399       -3.010276   1.000000
  400       -3.010259   1.000000
  401       -3.010258   1.000000
  402       -2.951520   1.000000
  403       -2.951515   1.000000
  404       -2.951423   1.000000
  405       -2.951411   1.000000
  406       -2.951390   1.000000
  407       -2.951389   1.000000
  408       -2.941192   1.000000
  409       -2.941189   1.000000
  410       -2.941166   1.000000
  411       -2.941153   1.000000
  412       -2.941130   1.000000
  413       -2.941123   1.000000
  414       -2.914853   1.000000
  415       -2.914847   1.000000
  416       -2.914843   1.000000
  417       -2.914840   1.000000
  418       -2.914826   1.000000
  419       -2.914821   1.000000
  420       -2.908530   1.000000
  421       -2.908526   1.000000
  422       -2.908423   1.000000
  423       -2.908417   1.000000
  424       -2.908399   1.000000
  425       -2.908397   1.000000
  426       -2.885168   1.000000
  427       -2.885162   1.000000
  428       -2.885159   1.000000
  429       -2.885155   1.000000
  430       -2.885151   1.000000
  431       -2.885144   1.000000
  432       -2.881000   1.000000
  433       -2.880995   1.000000
  434       -2.880975   1.000000
  435       -2.880966   1.000000
  436       -2.880958   1.000000
  437       -2.880943   1.000000
  438       -2.880929   1.000000
  439       -2.880922   1.000000
  440       -2.880905   1.000000
  441       -2.880898   1.000000
  442       -2.880896   1.000000
  443       -2.880887   1.000000
  444       -2.817491   1.000000
  445       -2.817489   1.000000
  446       -2.817445   1.000000
  447       -2.807849   1.000000
  448       -2.807844   1.000000
  449       -2.807838   1.000000
  450       -2.807830   1.000000
  451       -2.807816   1.000000
  452       -2.807810   1.000000
  453       -2.807804   1.000000
  454       -2.807800   1.000000
  455       -2.807787   1.000000
  456       -2.807785   1.000000
  457       -2.807782   1.000000
  458       -2.807773   1.000000
  459       -2.804251   1.000000
  460       -2.804244   1.000000
  461       -2.804235   1.000000
  462       -2.804228   1.000000
  463       -2.804139   1.000000
  464       -2.804135   1.000000
  465       -2.766749   1.000000
  466       -2.766744   1.000000
  467       -2.766644   1.000000
  468       -2.766639   1.000000
  469       -2.716847   1.000000
  470       -2.716847   1.000000
  471       -2.716830   1.000000
  472       -2.716816   1.000000
  473       -2.716801   1.000000
  474       -2.716791   1.000000
  475       -2.713597   1.000000
  476       -2.713597   1.000000
  477       -2.711318   1.000000
  478       -2.711312   1.000000
  479       -2.711304   1.000000
  480       -2.711287   1.000000
  481       -2.711272   1.000000
  482       -2.711256   1.000000
  483       -2.710770   1.000000
  484       -2.710756   1.000000
  485       -2.710653   1.000000
  486       -2.710646   1.000000
  487       -2.710638   1.000000
  488       -2.710631   1.000000
  489       -2.705106   1.000000
  490       -2.705098   1.000000
  491       -2.705091   1.000000
  492       -2.705082   1.000000
  493       -2.705075   1.000000
  494       -2.705074   1.000000
  495       -2.705066   1.000000
  496       -2.705061   1.000000
  497       -2.705051   1.000000
  498       -2.705046   1.000000
  499       -2.705035   1.000000
  500       -2.705031   1.000000
  501       -2.652905   1.000000
  502       -2.652880   1.000000
  503       -2.652860   1.000000
  504       -2.652858   1.000000
  505       -2.652763   1.000000
  506       -2.652750   1.000000
  507       -2.644935   1.000000
  508       -2.644929   1.000000
  509       -2.644885   1.000000
  510       -2.644882   1.000000
  511       -2.644881   1.000000
  512       -2.644876   1.000000
  513       -2.619058   1.000000
  514       -2.619057   1.000000
  515       -2.619045   1.000000
  516       -2.619036   1.000000
  517       -2.608925   1.000000
  518       -2.590788   1.000000
  519       -2.590778   1.000000
  520       -2.590699   1.000000
  521       -2.590696   1.000000
  522       -2.590681   1.000000
  523       -2.590679   1.000000
  524       -2.569558   1.000000
  525       -2.546026   1.000000
  526       -2.546014   1.000000
  527       -2.546010   1.000000
  528       -2.546004   1.000000
  529       -2.545993   1.000000
  530       -2.545986   1.000000
  531       -2.545961   1.000000
  532       -2.545951   1.000000
  533       -2.545951   1.000000
  534       -2.545947   1.000000
  535       -2.545945   1.000000
  536       -2.545938   1.000000
  537       -2.529218   1.000000
  538       -2.529213   1.000000
  539       -2.529155   1.000000
  540       -2.529147   1.000000
  541       -2.529127   1.000000
  542       -2.529121   1.000000
  543       -2.502889   1.000000
  544       -2.502888   1.000000
  545       -2.502745   1.000000
  546       -2.487857   1.000000
  547       -2.487831   1.000000
  548       -2.487781   1.000000
  549       -2.487774   1.000000
  550       -2.487687   1.000000
  551       -2.487650   1.000000
  552       -2.474226   1.000000
  553       -2.474218   1.000000
  554       -2.474214   1.000000
  555       -2.474202   1.000000
  556       -2.474179   1.000000
  557       -2.474172   1.000000
  558       -2.474161   1.000000
  559       -2.474158   1.000000
  560       -2.474149   1.000000
  561       -2.474145   1.000000
  562       -2.474141   1.000000
  563       -2.474135   1.000000
  564       -2.465188   1.000000
  565       -2.465177   1.000000
  566       -2.465144   1.000000
  567       -2.465133   1.000000
  568       -2.465119   1.000000
  569       -2.465116   1.000000
  570       -2.464281   1.000000
  571       -2.464205   1.000000
  572       -2.464202   1.000000
  573       -2.413674   1.000000
  574       -2.413660   1.000000
  575       -2.413648   1.000000
  576       -2.413641   1.000000
  577       -2.413569   1.000000
  578       -2.413564   1.000000
  579       -2.412251   1.000000
  580       -2.412086   1.000000
  581       -2.410649   1.000000
  582       -2.410429   1.000000
  583       -2.398919   1.000000
  584       -2.398895   1.000000
  585       -2.398883   1.000000
  586       -2.398869   1.000000
  587       -2.398748   1.000000
  588       -2.398735   1.000000
  589       -2.381076   1.000000
  590       -2.370427   1.000000
  591       -2.370420   1.000000
  592       -2.370419   1.000000
  593       -2.370412   1.000000
  594       -2.370409   1.000000
  595       -2.370409   1.000000
  596       -2.357065   1.000000
  597       -2.357051   1.000000
  598       -2.357047   1.000000
  599       -2.357034   1.000000
  600       -2.356996   1.000000
  601       -2.356986   1.000000
  602       -2.351906   1.000000
  603       -2.351905   1.000000
  604       -2.351727   1.000000
  605       -2.338121   1.000000
  606       -2.338092   1.000000
  607       -2.338038   1.000000
  608       -2.338030   1.000000
  609       -2.338023   1.000000
  610       -2.338013   1.000000
  611       -2.322567   1.000000
  612       -2.322346   1.000000
  613       -2.297699   1.000000
  614       -2.297697   1.000000
  615       -2.297668   1.000000
  616       -2.293620   1.000000
  617       -2.293606   1.000000
  618       -2.293601   1.000000
  619       -2.293587   1.000000
  620       -2.293502   1.000000
  621       -2.293498   1.000000
  622       -2.293148   1.000000
  623       -2.277804   1.000000
  624       -2.277626   1.000000
  625       -2.263232   1.000000
  626       -2.263205   1.000000
  627       -2.263141   1.000000
  628       -2.263126   1.000000
  629       -2.263107   1.000000
  630       -2.263077   1.000000
  631       -2.256669   1.000000
  632       -2.256666   1.000000
  633       -2.256657   1.000000
  634       -2.239604   1.000000
  635       -2.239592   1.000000
  636       -2.239583   1.000000
  637       -2.239572   1.000000
  638       -2.239449   1.000000
  639       -2.239425   1.000000
  640       -2.228402   1.000000
  641       -2.228326   1.000000
  642       -2.228325   1.000000
  643       -2.215839   1.000000
  644       -2.215619   1.000000
  645       -2.215410   1.000000
  646       -2.215398   1.000000
  647       -2.215162   1.000000
  648       -2.215162   1.000000
  649       -2.211351   1.000000
  650       -2.211346   1.000000
  651       -2.211338   1.000000
  652       -2.211337   1.000000
  653       -2.211330   1.000000
  654       -2.211320   1.000000
  655       -2.211314   1.000000
  656       -2.211311   1.000000
  657       -2.211303   1.000000
  658       -2.211296   1.000000
  659       -2.211295   1.000000
  660       -2.211286   1.000000
  661       -2.202081   1.000000
  662       -2.202074   1.000000
  663       -2.202063   1.000000
  664       -2.202059   1.000000
  665       -2.201952   1.000000
  666       -2.201948   1.000000
  667       -2.196637   1.000000
  668       -2.196631   1.000000
  669       -2.196621   1.000000
  670       -2.196615   1.000000
  671       -2.196502   1.000000
  672       -2.196498   1.000000
  673       -2.150254   1.000000
  674       -2.150243   1.000000
  675       -2.150215   1.000000
  676       -2.150205   1.000000
  677       -2.150085   1.000000
  678       -2.150075   1.000000
  679       -2.144855   1.000000
  680       -2.128155   1.000000
  681       -2.128135   1.000000
  682       -2.128080   1.000000
  683       -2.128069   1.000000
  684       -2.128062   1.000000
  685       -2.128057   1.000000
  686       -2.103520   1.000000
  687       -2.103519   1.000000
  688       -2.103154   1.000000
  689       -2.103149   1.000000
  690       -2.098474   1.000000
  691       -2.098471   1.000000
  692       -2.098450   1.000000
  693       -2.098445   1.000000
  694       -2.098437   1.000000
  695       -2.098434   1.000000
  696       -2.098430   1.000000
  697       -2.098419   1.000000
  698       -2.098392   1.000000
  699       -2.098375   1.000000
  700       -2.098359   1.000000
  701       -2.098345   1.000000
  702       -2.092800   1.000000
  703       -2.092594   1.000000
  704       -2.084097   1.000000
  705       -2.084080   1.000000
  706       -2.084008   1.000000
  707       -2.084004   1.000000
  708       -2.084001   1.000000
  709       -2.083983   1.000000
  710       -2.083958   1.000000
  711       -2.083934   1.000000
  712       -2.083925   1.000000
  713       -2.083910   1.000000
  714       -2.083880   1.000000
  715       -2.083862   1.000000
  716       -2.080899   1.000000
  717       -2.080682   1.000000
  718       -2.058202   1.000000
  719       -2.058184   1.000000
  720       -2.058050   1.000000
  721       -2.058040   1.000000
  722       -2.058027   1.000000
  723       -2.058004   1.000000
  724       -2.034062   1.000000
  725       -2.034052   1.000000
  726       -2.034050   1.000000
  727       -2.034042   1.000000
  728       -2.033999   1.000000
  729       -2.033979   1.000000
  730       -2.012164   1.000000
  731       -2.012161   1.000000
  732       -2.012131   1.000000
  733       -2.012124   1.000000
  734       -2.012120   1.000000
  735       -2.012112   1.000000
  736       -2.012109   1.000000
  737       -2.012093   1.000000
  738       -2.012077   1.000000
  739       -2.012069   1.000000
  740       -2.012054   1.000000
  741       -2.012026   1.000000
  742       -1.968570   1.000000
  743       -1.968544   1.000000
  744       -1.968413   1.000000
  745       -1.968402   1.000000
  746       -1.968387   1.000000
  747       -1.968367   1.000000
  748       -1.961242   1.000000
  749       -1.961236   1.000000
  750       -1.961231   1.000000
  751       -1.961206   1.000000
  752       -1.961192   1.000000
  753       -1.961156   1.000000
  754       -1.913182   1.000000
  755       -1.913180   1.000000
  756       -1.913169   1.000000
  757       -1.913161   1.000000
  758       -1.913147   1.000000
  759       -1.913143   1.000000
  760       -1.913122   1.000000
  761       -1.913122   1.000000
  762       -1.913098   1.000000
  763       -1.913085   1.000000
  764       -1.913075   1.000000
  765       -1.913068   1.000000
  766       -1.909282   1.000000
  767       -1.909277   1.000000
  768       -1.909235   1.000000
  769       -1.909231   1.000000
  770       -1.909217   1.000000
  771       -1.909208   1.000000
  772       -1.902706   1.000000
  773       -1.902701   1.000000
  774       -1.902644   1.000000
  775       -1.902641   1.000000
  776       -1.902623   1.000000
  777       -1.902615   1.000000
  778       -1.870723   1.000000
  779       -1.870642   1.000000
  780       -1.870641   1.000000
  781       -1.866913   1.000000
  782       -1.866902   1.000000
  783       -1.866785   1.000000
  784       -1.866776   1.000000
  785       -1.866769   1.000000
  786       -1.866740   1.000000
  787       -1.847033   1.000000
  788       -1.847025   1.000000
  789       -1.847023   1.000000
  790       -1.847007   1.000000
  791       -1.846998   1.000000
  792       -1.846995   1.000000
  793       -1.842024   1.000000
  794       -1.842019   1.000000
  795       -1.841891   1.000000
  796       -1.841876   1.000000
  797       -1.841871   1.000000
  798       -1.841865   1.000000
  799       -1.821270   1.000000
  800       -1.821259   1.000000
  801       -1.821195   1.000000
  802       -1.821178   1.000000
  803       -1.821170   1.000000
  804       -1.821164   1.000000
  805       -1.813085   1.000000
  806       -1.813083   1.000000
  807       -1.813059   1.000000
  808       -1.813047   1.000000
  809       -1.813027   1.000000
  810       -1.813021   1.000000
  811       -1.813002   1.000000
  812       -1.812992   1.000000
  813       -1.812974   1.000000
  814       -1.812970   1.000000
  815       -1.812940   1.000000
  816       -1.812936   1.000000
  817       -1.774034   1.000000
  818       -1.774030   1.000000
  819       -1.773987   1.000000
  820       -1.773981   1.000000
  821       -1.773971   1.000000
  822       -1.773958   1.000000
  823       -1.773939   1.000000
  824       -1.773931   1.000000
  825       -1.773882   1.000000
  826       -1.773872   1.000000
  827       -1.773861   1.000000
  828       -1.773848   1.000000
  829       -1.740465   1.000000
  830       -1.740446   1.000000
  831       -1.740313   1.000000
  832       -1.740306   1.000000
  833       -1.740290   1.000000
  834       -1.740279   1.000000
  835       -1.739142   1.000000
  836       -1.739083   1.000000
  837       -1.739082   1.000000
  838       -1.735063   1.000000
  839       -1.735048   1.000000
  840       -1.735043   1.000000
  841       -1.735040   1.000000
  842       -1.735027   1.000000
  843       -1.735023   1.000000
  844       -1.723636   1.000000
  845       -1.723635   1.000000
  846       -1.723555   1.000000
  847       -1.723549   1.000000
  848       -1.723530   1.000000
  849       -1.723527   1.000000
  850       -1.714259   1.000000
  851       -1.714196   1.000000
  852       -1.714128   1.000000
  853       -1.713992   1.000000
  854       -1.713912   1.000000
  855       -1.713759   1.000000
  856       -1.710161   1.000000
  857       -1.710133   1.000000
  858       -1.710127   1.000000
  859       -1.710117   1.000000
  860       -1.710105   1.000000
  861       -1.710094   1.000000
  862       -1.690370   1.000000
  863       -1.690330   1.000000
  864       -1.690328   1.000000
  865       -1.655855   1.000000
  866       -1.655852   1.000000
  867       -1.655827   1.000000
  868       -1.655816   1.000000
  869       -1.655807   1.000000
  870       -1.655798   1.000000
  871       -1.625062   1.000000
  872       -1.625057   1.000000
  873       -1.625042   1.000000
  874       -1.625036   1.000000
  875       -1.625016   1.000000
  876       -1.625013   1.000000
  877       -1.625005   1.000000
  878       -1.624999   1.000000
  879       -1.624998   1.000000
  880       -1.624990   1.000000
  881       -1.624981   1.000000
  882       -1.624976   1.000000
  883       -1.614873   1.000000
  884       -1.603413   1.000000
  885       -1.603295   1.000000
  886       -1.603239   1.000000
  887       -1.602912   1.000000
  888       -1.602857   1.000000
  889       -1.602479   1.000000
  890       -1.552842   1.000000
  891       -1.552833   1.000000
  892       -1.552724   1.000000
  893       -1.552705   1.000000
  894       -1.552700   1.000000
  895       -1.552692   1.000000
  896       -1.498070   1.000000
  897       -1.498055   1.000000
  898       -1.498048   1.000000
  899       -1.498044   1.000000
  900       -1.498036   1.000000
  901       -1.498031   1.000000