       N       E                     dE             d eps       ncg     rms          rms(c)
DAV:   1     0.223170103794E+05    0.22317E+05   -0.98485E+05 12200   0.134E+03
DAV:   2     0.964882211259E+02   -0.22221E+05   -0.21235E+05 12152   0.469E+02
DAV:   3    -0.133599187026E+04   -0.14325E+04   -0.12018E+04 13488   0.131E+02
DAV:   4    -0.155855453764E+04   -0.22256E+03   -0.18734E+03 21024   0.489E+01
DAV:   5    -0.157077482890E+04   -0.12220E+02   -0.11516E+02 19272   0.118E+01    0.145E+02
DAV:   6    -0.194250671929E+04   -0.37173E+03   -0.28186E+03 15752   0.166E+02    0.289E+02
DAV:   7    -0.175401933287E+04    0.18849E+03   -0.10599E+03 13416   0.141E+02    0.232E+02
DAV:   8    -0.190021601323E+04   -0.14620E+03   -0.68120E+02 16536   0.119E+02    0.282E+02
DAV:   9    -0.204459363391E+04   -0.14438E+03   -0.20186E+02 14080   0.109E+02    0.300E+02
DAV:  10    -0.165416466725E+04    0.39043E+03   -0.29861E+02 17536   0.755E+01    0.199E+02
DAV:  11    -0.155559547531E+04    0.98569E+02   -0.28369E+02 14880   0.755E+01    0.166E+02
DAV:  12    -0.167676587355E+04   -0.12117E+03   -0.44164E+02 16384   0.113E+02    0.217E+02
DAV:  13    -0.151632787602E+04    0.16044E+03   -0.26110E+02 14600   0.725E+01    0.173E+02
DAV:  14    -0.142254019876E+04    0.93788E+02   -0.16624E+02 13712   0.754E+01    0.129E+02
DAV:  15    -0.156281044642E+04   -0.14027E+03   -0.11216E+02 15792   0.716E+01    0.208E+02
DAV:  16    -0.149140843524E+04    0.71402E+02   -0.71550E+01 13200   0.472E+01    0.187E+02
DAV:  17    -0.141419038093E+04    0.77218E+02   -0.57605E+01 12608   0.332E+01    0.150E+02
DAV:  18    -0.136482293692E+04    0.49367E+02   -0.32232E+01 12816   0.267E+01    0.954E+01
DAV:  19    -0.135130910572E+04    0.13514E+02   -0.18669E+01 12960   0.213E+01    0.757E+01
DAV:  20    -0.135001371321E+04    0.12954E+01   -0.11989E+01 13224   0.189E+01    0.736E+01
DAV:  21    -0.134873250901E+04    0.12812E+01   -0.10047E+01 13104   0.194E+01    0.773E+01
DAV:  22    -0.134424068941E+04    0.44918E+01   -0.80478E+00 13232   0.183E+01    0.752E+01
DAV:  23    -0.133478824828E+04    0.94524E+01   -0.73425E+00 13128   0.166E+01    0.547E+01
DAV:  24    -0.133273525685E+04    0.20530E+01   -0.47332E+00 13408   0.116E+01    0.503E+01
DAV:  25    -0.133246381628E+04    0.27144E+00   -0.34804E+00 13248   0.952E+00    0.526E+01
DAV:  26    -0.133001889751E+04    0.24449E+01   -0.27105E+00 13232   0.701E+00    0.433E+01
DAV:  27    -0.132873387054E+04    0.12850E+01   -0.16751E+00 13272   0.623E+00    0.386E+01
DAV:  28    -0.132809486538E+04    0.63901E+00   -0.11761E+00 13552   0.362E+00    0.346E+01
DAV:  29    -0.132875499209E+04   -0.66013E+00   -0.13076E+00 13688   0.647E+00    0.329E+01
DAV:  30    -0.132917951102E+04   -0.42452E+00   -0.16560E+00 13528   0.812E+00    0.389E+01
DAV:  31    -0.132938767643E+04   -0.20817E+00   -0.15005E+00 13512   0.725E+00    0.439E+01
DAV:  32    -0.132854917865E+04    0.83850E+00   -0.13926E+00 13576   0.693E+00    0.396E+01
DAV:  33    -0.132683999886E+04    0.17092E+01   -0.14539E+00 13520   0.712E+00    0.266E+01
DAV:  34    -0.132601510853E+04    0.82489E+00   -0.94885E-01 13456   0.581E+00    0.219E+01
DAV:  35    -0.132641336025E+04   -0.39825E+00   -0.67431E-01 13568   0.500E+00    0.282E+01
DAV:  36    -0.132700222222E+04   -0.58886E+00   -0.89665E-01 13472   0.538E+00    0.316E+01
DAV:  37    -0.132617830843E+04    0.82391E+00   -0.92587E-01 13440   0.557E+00    0.248E+01
DAV:  38    -0.132559313164E+04    0.58518E+00   -0.73293E-01 13488   0.439E+00    0.190E+01
DAV:  39    -0.132555940244E+04    0.33729E-01   -0.43609E-01 13448   0.338E+00    0.182E+01
DAV:  40    -0.132579591271E+04   -0.23651E+00   -0.41978E-01 13440   0.350E+00    0.206E+01
DAV:  41    -0.132560147736E+04    0.19444E+00   -0.45027E-01 13433   0.331E+00    0.191E+01
DAV:  42    -0.132532943770E+04    0.27204E+00   -0.17679E-01 13408   0.219E+00    0.166E+01
DAV:  43    -0.132513782694E+04    0.19161E+00   -0.11990E-01 13416   0.164E+00    0.130E+01
DAV:  44    -0.132502301035E+04    0.11482E+00   -0.17810E-01 13480   0.191E+00    0.892E+00
DAV:  45    -0.132499967103E+04    0.23339E-01   -0.95235E-02 13456   0.173E+00    0.675E+00
DAV:  46    -0.132505536661E+04   -0.55696E-01   -0.91755E-02 13472   0.142E+00    0.996E+00
DAV:  47    -0.132500400469E+04    0.51362E-01   -0.18346E-01 13536   0.138E+00    0.884E+00
DAV:  48    -0.132499992284E+04    0.40819E-02   -0.75634E-02 13440   0.144E+00    0.894E+00
DAV:  49    -0.132494201799E+04    0.57905E-01   -0.36929E-02 13456   0.108E+00    0.857E+00
DAV:  50    -0.132493818593E+04    0.38321E-02   -0.44576E-02 13568   0.105E+00    0.784E+00
DAV:  51    -0.132497374002E+04   -0.35554E-01   -0.24004E-01 18752   0.155E+00    0.996E+00
DAV:  52    -0.132490263500E+04    0.71105E-01   -0.43964E-02 14288   0.964E-01    0.778E+00
DAV:  53    -0.132487268113E+04    0.29954E-01   -0.38077E-02 13944   0.800E-01    0.538E+00
DAV:  54    -0.132489302700E+04   -0.20346E-01   -0.29925E-02 13608   0.692E-01    0.315E+00
DAV:  55    -0.132493756097E+04   -0.44534E-01   -0.16159E-02 13640   0.682E-01    0.350E+00
DAV:  56    -0.132498059101E+04   -0.43030E-01   -0.49235E-02 17032   0.120E+00    0.528E+00
DAV:  57    -0.132495709740E+04    0.23494E-01   -0.66236E-02 14208   0.110E+00    0.734E+00
DAV:  58    -0.132487662379E+04    0.80474E-01   -0.21423E-02 14016   0.763E-01    0.598E+00
DAV:  59    -0.132486817956E+04    0.84442E-02   -0.35480E-02 14040   0.677E-01    0.328E+00
DAV:  60    -0.132490538199E+04   -0.37202E-01   -0.46927E-02 13784   0.652E-01    0.311E+00
DAV:  61    -0.132494828910E+04   -0.42907E-01   -0.56803E-02 15360   0.949E-01    0.444E+00
DAV:  62    -0.132491668892E+04    0.31600E-01   -0.22814E-02 14608   0.839E-01    0.219E+00
DAV:  63    -0.132493177315E+04   -0.15084E-01   -0.18924E-02 14032   0.577E-01    0.301E+00
DAV:  64    -0.132492438496E+04    0.73882E-02   -0.50352E-03 13560   0.383E-01    0.321E+00
DAV:  65    -0.132490602627E+04    0.18359E-01   -0.42044E-03 13624   0.359E-01    0.210E+00
DAV:  66    -0.132491424424E+04   -0.82180E-02   -0.39559E-03 13872   0.391E-01    0.188E+00
DAV:  67    -0.132492337003E+04   -0.91258E-02   -0.52035E-03 13672   0.375E-01    0.145E+00
DAV:  68    -0.132493032772E+04   -0.69577E-02   -0.47478E-03 13872   0.323E-01    0.181E+00
DAV:  69    -0.132492543779E+04    0.48899E-02   -0.20094E-03 13416   0.234E-01    0.235E+00
DAV:  70    -0.132491495874E+04    0.10479E-01   -0.14671E-03 13512   0.210E-01    0.173E+00
DAV:  71    -0.132492125224E+04   -0.62935E-02   -0.82039E-03 14792   0.302E-01    0.131E+00
DAV:  72    -0.132493067249E+04   -0.94203E-02   -0.24639E-03 13890   0.282E-01    0.927E-01
DAV:  73    -0.132492863303E+04    0.20395E-02   -0.60721E-04 16192   0.116E-01    0.890E-01
DAV:  74    -0.132492887875E+04   -0.24572E-03   -0.66511E-04 14056   0.101E-01    0.512E-01
DAV:  75    -0.132493126820E+04   -0.23894E-02   -0.32702E-04 13648   0.870E-02    0.310E-01
DAV:  76    -0.132493274190E+04   -0.14737E-02   -0.44125E-04 14792   0.126E-01    0.576E-01
DAV:  77    -0.132493245220E+04    0.28970E-03   -0.36546E-04 14128   0.118E-01    0.223E-01
DAV:  78    -0.132493273533E+04   -0.28312E-03   -0.11224E-04 14776   0.539E-02    0.226E-01
DAV:  79    -0.132493311871E+04   -0.38338E-03   -0.10044E-04 13584   0.498E-02    0.184E-01
DAV:  80    -0.132493355864E+04   -0.43993E-03   -0.82219E-05 13440   0.476E-02    0.154E-01
DAV:  81    -0.132493426966E+04   -0.71101E-03   -0.23747E-04 15096   0.900E-02    0.570E-01
DAV:  82    -0.132493379076E+04    0.47890E-03   -0.20036E-04 13800   0.874E-02    0.183E-01
DAV:  83    -0.132493401533E+04   -0.22457E-03   -0.46856E-05 12896   0.388E-02    0.105E-01
DAV:  84    -0.132493433823E+04   -0.32290E-03   -0.33206E-05 11352   0.299E-02    0.110E-01
DAV:  85    -0.132493483523E+04   -0.49700E-03   -0.49179E-05 12865   0.341E-02    0.130E-01
DAV:  86    -0.132493484393E+04   -0.87062E-05   -0.38087E-05 11960   0.358E-02    0.141E-01
DAV:  87    -0.132493494800E+04   -0.10407E-03   -0.24550E-05  8632   0.267E-02    0.104E-01
DAV:  88    -0.132493525027E+04   -0.30226E-03   -0.18543E-05  8857   0.201E-02    0.984E-02
DAV:  89    -0.132493551523E+04   -0.26497E-03   -0.17942E-05 10224   0.184E-02    0.105E-01
DAV:  90    -0.132493579283E+04   -0.27760E-03   -0.21794E-05  9681   0.216E-02    0.980E-02
DAV:  91    -0.132493549730E+04    0.29552E-03   -0.26632E-05  8786   0.295E-02    0.122E-01
DAV:  92    -0.132493602000E+04   -0.52270E-03   -0.37160E-05  9474   0.291E-02    0.106E-01
DAV:  93    -0.132493622803E+04   -0.20802E-03   -0.19091E-05  9920   0.186E-02    0.619E-02
DAV:  94    -0.132493631086E+04   -0.82833E-04   -0.10500E-05  8464   0.143E-02    0.554E-02
DAV:  95    -0.132493644382E+04   -0.13296E-03   -0.12694E-05  8760   0.140E-02    0.582E-02
DAV:  96    -0.132493648003E+04   -0.36209E-04   -0.11683E-05  7536   0.202E-02    0.740E-02
DAV:  97    -0.132493653845E+04   -0.58420E-04   -0.12042E-05  8169   0.181E-02    0.443E-02
DAV:  98    -0.132493657242E+04   -0.33969E-04   -0.54141E-06  7560   0.108E-02    0.396E-02
DAV:  99    -0.132493663749E+04   -0.65067E-04   -0.78858E-06  8282   0.110E-02    0.501E-02
DAV: 100    -0.132493665534E+04   -0.17846E-04   -0.45582E-06  7344   0.985E-03    0.478E-02
DAV: 101    -0.132493663020E+04    0.25132E-04   -0.61095E-06  6866   0.148E-02    0.712E-02
DAV: 102    -0.132493665002E+04   -0.19819E-04   -0.55536E-06  7002   0.137E-02    0.311E-02
DAV: 103    -0.132493668756E+04   -0.37537E-04   -0.40481E-06  7698   0.737E-03    0.394E-02
DAV: 104    -0.132493671853E+04   -0.30973E-04   -0.41906E-06  7897   0.758E-03    0.350E-02
DAV: 105    -0.132493673173E+04   -0.13200E-04   -0.27448E-06  7265   0.734E-03    0.230E-02
DAV: 106    -0.132493673312E+04   -0.13881E-05   -0.44953E-06  7187   0.120E-02
   1 F= -.14221000E+04 E0= -.14213267E+04  d E =-.154672E+01
