LAMMPS (24 Mar 2022)
OMP_NUM_THREADS environment is not set. Defaulting to 1 thread. (src/comm.cpp:98)
  using 1 OpenMP thread(s) per MPI task
Reading data file ...
  triclinic box = (0 0 0) to (4.805028 4.1612763 13.116254) with tilt (-2.402514 0 0)
  1 by 1 by 1 MPI processor grid
  reading atoms ...
  12 atoms
  read_data CPU = 0.000 seconds
WARNING: Using 'neigh_modify every 1 delay 0 check yes' setting during minimization (src/min.cpp:187)
Neighbor list info ...
  update every 1 steps, delay 0 steps, check yes
  max neighbors/atom: 2000, page size: 100000
  master list distance cutoff = 8.28721
  ghost atom cutoff = 8.28721
  binsize = 4.143605, bins = 2 2 4
  1 neighbor lists, perpetual/occasional/extra = 1 0 0
  (1) pair eam/alloy, perpetual
      attributes: half, newton on
      pair build: half/bin/newton/tri
      stencil: half/bin/3d/tri
      bin: standard
Setting up cg style minimization ...
  Unit style    : metal
  Current step  : 0
Per MPI rank memory allocation (min/avg/max) = 4.453 | 4.453 | 4.453 Mbytes
   Step          Temp          E_pair         E_mol          TotEng         Press     
         0   0             -35.118611      0             -35.118611     -90275.74     
Loop time of 1.434e-06 on 1 procs for 0 steps with 12 atoms

139.5% CPU use with 1 MPI tasks x 1 OpenMP threads

Minimization stats:
  Stopping criterion = max iterations
  Energy initial, next-to-last, final = 
     -35.1186110803905                  0  -35.1186110803905
  Force two-norm initial, final = 2.9987839 2.9987839
  Force max component initial, final = 0.86567559 0.86567559
  Final line search alpha, max atom move = 0 0
  Iterations, force evaluations = 0 0

MPI task timing breakdown:
Section |  min time  |  avg time  |  max time  |%varavg| %total
---------------------------------------------------------------
Pair    | 0          | 0          | 0          |   0.0 |  0.00
Neigh   | 0          | 0          | 0          |   0.0 |  0.00
Comm    | 0          | 0          | 0          |   0.0 |  0.00
Output  | 0          | 0          | 0          |   0.0 |  0.00
Modify  | 0          | 0          | 0          |   0.0 |  0.00
Other   |            | 1.434e-06  |            |       |100.00

Nlocal:             12 ave          12 max          12 min
Histogram: 1 0 0 0 0 0 0 0 0 0
Nghost:            566 ave         566 max         566 min
Histogram: 1 0 0 0 0 0 0 0 0 0
Neighs:            654 ave         654 max         654 min
Histogram: 1 0 0 0 0 0 0 0 0 0

Total # of neighbors = 654
Ave neighs/atom = 54.5
Neighbor list builds = 0
Dangerous builds = 0
Setting up Verlet run ...
  Unit style    : metal
  Current step  : 0
  Time step     : 0.01
Per MPI rank memory allocation (min/avg/max) = 4.328 | 4.328 | 4.328 Mbytes
   Step          Temp          E_pair         E_mol          TotEng         Press     
         0   300           -35.118611      0             -34.692053     -88538.478    
       100   830.70624     -35.901376      0             -34.720227     -52504.103    
       200   955.88035     -36.075303      0             -34.716173     -52140.827    
       300   827.3298      -35.879018      0             -34.702669     -58951.684    
       400   899.89701     -35.983977      0             -34.704448     -40257.883    
       500   772.57774     -35.797813      0             -34.699314     -26784.921    
       600   958.3393      -36.057081      0             -34.694455     -61598.98     
       700   1014.04       -36.153025      0             -34.711201     -41641.932    
       800   822.12572     -35.867699      0             -34.69875      -50287.545    
       900   726.46018     -35.743694      0             -34.710768     -46090.462    
      1000   970.70692     -36.090503      0             -34.710292     -61585.458    
      1100   614.07506     -35.572514      0             -34.699385     -39457.435    
      1200   898.5486      -36.004374      0             -34.726762     -39970.704    
      1300   867.58613     -35.935112      0             -34.701525     -43200.6      
      1400   641.64814     -35.601577      0             -34.689242     -42661.293    
      1500   839.16701     -35.881202      0             -34.688023     -43012.073    
      1600   762.84608     -35.780937      0             -34.696276     -49276.512    
      1700   784.87016     -35.804798      0             -34.688821     -51359.815    
      1800   668.29542     -35.659614      0             -34.70939      -46211.731    
      1900   697.47427     -35.696252      0             -34.70454      -61048.262    
      2000   929.68878     -36.022109      0             -34.70022      -53242.452    
      2100   929.71614     -36.036525      0             -34.714597     -54122.455    
      2200   705.42461     -35.709243      0             -34.706227     -51053.402    
      2300   760.80312     -35.765358      0             -34.683601     -56419.228    
      2400   991.23592     -36.113615      0             -34.704214     -61121.513    
      2500   797.27744     -35.833456      0             -34.699838     -37662.408    
      2600   837.29344     -35.896053      0             -34.705537     -48857.925    
      2700   902.46678     -35.994897      0             -34.711715     -48613.506    
      2800   659.21455     -35.656044      0             -34.718732     -43795.778    
      2900   741.45918     -35.735224      0             -34.680972     -49549.434    
      3000   925.65362     -36.037482      0             -34.721331     -53805.977    
      3100   910.53544     -36.006112      0             -34.711457     -27527.315    
      3200   976.49116     -36.096356      0             -34.70792      -47556.705    
      3300   856.8157      -35.908395      0             -34.690121     -50111.635    
      3400   646.07959     -35.599749      0             -34.681113     -40090.069    
      3500   710.51558     -35.689569      0             -34.679314     -54604.409    
      3600   980.56031     -36.092679      0             -34.698458     -49261.304    
      3700   801.93659     -35.812922      0             -34.672679     -61650.215    
      3800   971.22433     -36.074366      0             -34.69342      -44653.399    
      3900   740.51174     -35.739707      0             -34.686802     -36440.823    
      4000   1109.1595     -36.284666      0             -34.707595     -55472.214    
      4100   714.44486     -35.698723      0             -34.682881     -55784.416    
      4200   746.67337     -35.745148      0             -34.683482     -55786.434    
      4300   960.76105     -36.054344      0             -34.688275     -44124.516    
      4400   929.37585     -36.025051      0             -34.703607     -40235.96     
      4500   914.4899      -35.988004      0             -34.687726     -45851.489    
      4600   910.16545     -35.98398       0             -34.689851     -51703.419    
      4700   782.10128     -35.787656      0             -34.675616     -33223.322    
      4800   998.64382     -36.123989      0             -34.704055     -50210.514    
      4900   838.43711     -35.881986      0             -34.689844     -33939.642    
      5000   943.63118     -36.039264      0             -34.697551     -59169.894    
      5100   733.22217     -35.75103       0             -34.70849      -42854.53     
      5200   591.60885     -35.526781      0             -34.685595     -37707.597    
      5300   783.05486     -35.816347      0             -34.702951     -57365.281    
      5400   712.3593      -35.693393      0             -34.680516     -50474.961    
      5500   942.81328     -36.046414      0             -34.705864     -45291.105    
      5600   787.06395     -35.823746      0             -34.70465      -32768.438    
      5700   1036.7618     -36.171946      0             -34.697814     -54740.042    
      5800   882.25619     -35.955618      0             -34.701171     -50891.186    
      5900   1114.2916     -36.283615      0             -34.699247     -52473.119    
      6000   931.40219     -36.020815      0             -34.69649      -52382.653    
      6100   1163.9665     -36.406927      0             -34.751927     -54323.727    
      6200   976.79955     -36.120865      0             -34.731991     -50800.545    
      6300   720.08705     -35.729172      0             -34.705308     -39529.355    
      6400   1060.3915     -36.223211      0             -34.715481     -57955.176    
      6500   829.68851     -35.89652       0             -34.716818     -47305.398    
      6600   831.93116     -35.874012      0             -34.691121     -50850.45     
      6700   621.56216     -35.577924      0             -34.694149     -54619.532    
      6800   666.95578     -35.663965      0             -34.715646     -55681.682    
      6900   904.98008     -35.99622       0             -34.709463     -44101.743    
      7000   888.48973     -35.991479      0             -34.72817      -47785.66     
      7100   957.39717     -36.090528      0             -34.729242     -62566.883    
      7200   804.87938     -35.860433      0             -34.716006     -42515.131    
      7300   740.78577     -35.760794      0             -34.707499     -49048.7      
      7400   716.6831      -35.718023      0             -34.698999     -44294.392    
      7500   855.73906     -35.939183      0             -34.722441     -39543.018    
      7600   747.78945     -35.758657      0             -34.695404     -59952.956    
      7700   729.92357     -35.747362      0             -34.709512     -41051.861    
      7800   988.2284      -36.120205      0             -34.715081     -53457.133    
      7900   782.32643     -35.829462      0             -34.717102     -42522.004    
      8000   954.87022     -36.067178      0             -34.709484     -39729.425    
      8100   649.48417     -35.613501      0             -34.690025     -45862.728    
      8200   967.19209     -36.105458      0             -34.730245     -44955.022    
      8300   989.99313     -36.129032      0             -34.721399     -44770.195    
      8400   660.61081     -35.636458      0             -34.697161     -55132.429    
      8500   837.59524     -35.890648      0             -34.699703     -49426.327    
      8600   881.91749     -35.954327      0             -34.700363     -47370.155    
      8700   798.87724     -35.837914      0             -34.702021     -56769.36     
      8800   870.15223     -35.938855      0             -34.701619     -49063.691    
      8900   635.21026     -35.595097      0             -34.691916     -48075.584    
      9000   1010.5605     -36.169838      0             -34.732961     -42607.18     
      9100   1031.0696     -36.194369      0             -34.728331     -52157.984    
      9200   804.13717     -35.837245      0             -34.693874     -42293.022    
      9300   789.57766     -35.80968       0             -34.68701      -44797.036    
      9400   863.04547     -35.93202       0             -34.704888     -33067.466    
      9500   1104.1822     -36.286988      0             -34.716993     -43978.371    
      9600   896.52027     -35.993478      0             -34.718751     -32348.663    
      9700   716.79618     -35.707922      0             -34.688737     -41199.206    
      9800   968.14547     -36.089919      0             -34.71335      -40343.818    
      9900   917.98267     -36.006863      0             -34.701619     -46881.378    
     10000   625.92476     -35.572018      0             -34.68204      -45347.237    
Loop time of 0.327161 on 1 procs for 10000 steps with 12 atoms

Performance: 26409.028 ns/day, 0.001 hours/ns, 30566.005 timesteps/s
98.5% CPU use with 1 MPI tasks x 1 OpenMP threads

MPI task timing breakdown:
Section |  min time  |  avg time  |  max time  |%varavg| %total
---------------------------------------------------------------
Pair    | 0.23326    | 0.23326    | 0.23326    |   0.0 | 71.30
Neigh   | 0.031895   | 0.031895   | 0.031895   |   0.0 |  9.75
Comm    | 0.03356    | 0.03356    | 0.03356    |   0.0 | 10.26
Output  | 0.018401   | 0.018401   | 0.018401   |   0.0 |  5.62
Modify  | 0.0023873  | 0.0023873  | 0.0023873  |   0.0 |  0.73
Other   |            | 0.007663   |            |       |  2.34

Nlocal:             12 ave          12 max          12 min
Histogram: 1 0 0 0 0 0 0 0 0 0
Nghost:            648 ave         648 max         648 min
Histogram: 1 0 0 0 0 0 0 0 0 0
Neighs:            640 ave         640 max         640 min
Histogram: 1 0 0 0 0 0 0 0 0 0

Total # of neighbors = 640
Ave neighs/atom = 53.333333
Neighbor list builds = 772
Dangerous builds = 293
System init for write_restart ...
Total wall time: 0:00:00
