 251 251   0   0
  0.1094305E+02  0.1054150E-08  0.1054150E-08  0.2854150E-08  0.2000000E-15
   1.0000000000000000E-004
  CAR 
 NiAl                                    
     11.58346616    -26.20282942  301      3.52262104      1.00000000
    -26.203  0.0000E+00  0.0000E+00
    -26.077  0.0000E+00  0.0000E+00
    -25.951  0.0000E+00  0.0000E+00
    -25.825  0.0000E+00  0.0000E+00
    -25.699  0.0000E+00  0.0000E+00
    -25.573  0.0000E+00  0.0000E+00
    -25.447  0.0000E+00  0.0000E+00
    -25.321  0.0000E+00  0.0000E+00
    -25.195  0.0000E+00  0.0000E+00
    -25.069  0.0000E+00  0.0000E+00
    -24.943  0.0000E+00  0.0000E+00
    -24.817  0.0000E+00  0.0000E+00
    -24.691  0.1061E-08  0.1336E-09
    -24.565  0.4563E-02  0.5747E-03
    -24.439  0.3532E+00  0.4506E-01
    -24.314  0.3919E-01  0.5000E-01
    -24.188  0.2434E-06  0.5000E-01
    -24.062  0.0000E+00  0.5000E-01
    -23.936  0.0000E+00  0.5000E-01
    -23.810  0.0000E+00  0.5000E-01
    -23.684  0.0000E+00  0.5000E-01
    -23.558  0.0000E+00  0.5000E-01
    -23.432  0.0000E+00  0.5000E-01
    -23.306  0.0000E+00  0.5000E-01
    -23.180  0.0000E+00  0.5000E-01
    -23.054  0.0000E+00  0.5000E-01
    -22.928  0.0000E+00  0.5000E-01
    -22.802  0.0000E+00  0.5000E-01
    -22.676  0.0000E+00  0.5000E-01
    -22.550  0.0000E+00  0.5000E-01
    -22.424  0.0000E+00  0.5000E-01
    -22.298  0.6258E-11  0.5000E-01
    -22.172  0.4151E-03  0.5005E-01
    -22.046  0.2720E+00  0.8431E-01
    -21.920  0.1493E+00  0.1031E+00
    -21.794  0.6003E+00  0.1787E+00
    -21.668  0.5562E+00  0.2488E+00
    -21.543  0.3954E-01  0.2538E+00
    -21.417  0.3604E+00  0.2992E+00
    -21.291  0.6673E-02  0.3000E+00
    -21.165  0.2569E-08  0.3000E+00
    -21.039  0.0000E+00  0.3000E+00
    -20.913  0.0000E+00  0.3000E+00
    -20.787  0.0000E+00  0.3000E+00
    -20.661  0.0000E+00  0.3000E+00
    -20.535  0.0000E+00  0.3000E+00
    -20.409  0.0000E+00  0.3000E+00
    -20.283  0.0000E+00  0.3000E+00
    -20.157  0.0000E+00  0.3000E+00
    -20.031  0.0000E+00  0.3000E+00
    -19.905  0.0000E+00  0.3000E+00
    -19.779  0.2688E-14  0.3000E+00
    -19.653  0.3811E-05  0.3000E+00
    -19.527  0.4514E-01  0.3057E+00
    -19.401  0.2422E+00  0.3362E+00
    -19.275  0.3204E+00  0.3765E+00
    -19.149  0.5337E+00  0.4438E+00
    -19.023  0.3025E+00  0.4819E+00
    -18.897  0.4614E+00  0.5400E+00
    -18.772  0.2626E+00  0.5731E+00
    -18.646  0.5127E+00  0.6377E+00
    -18.520  0.9277E+00  0.7545E+00
    -18.394  0.9839E+00  0.8784E+00
    -18.268  0.6406E+00  0.9591E+00
    -18.142  0.9565E+00  0.1080E+01
    -18.016  0.9137E+00  0.1195E+01
    -17.890  0.1435E+01  0.1375E+01
    -17.764  0.1229E+01  0.1530E+01
    -17.638  0.1470E+01  0.1715E+01
    -17.512  0.1448E+01  0.1898E+01
    -17.386  0.1227E+01  0.2052E+01
    -17.260  0.1111E+01  0.2192E+01
    -17.134  0.1391E+01  0.2367E+01
    -17.008  0.1273E+01  0.2528E+01
    -16.882  0.1259E+01  0.2686E+01
    -16.756  0.1583E+01  0.2886E+01
    -16.630  0.1813E+01  0.3114E+01
    -16.504  0.1660E+01  0.3323E+01
    -16.378  0.1474E+01  0.3509E+01
    -16.252  0.1332E+01  0.3676E+01
    -16.126  0.1818E+01  0.3905E+01
    -16.001  0.2236E+01  0.4187E+01
    -15.875  0.1556E+01  0.4383E+01
    -15.749  0.1145E+01  0.4527E+01
    -15.623  0.1800E+01  0.4754E+01
    -15.497  0.1489E+01  0.4942E+01
    -15.371  0.1002E+01  0.5068E+01
    -15.245  0.9745E+00  0.5190E+01
    -15.119  0.1143E+01  0.5334E+01
    -14.993  0.7948E+00  0.5435E+01
    -14.867  0.1186E+01  0.5584E+01
    -14.741  0.8797E+00  0.5695E+01
    -14.615  0.2400E+00  0.5725E+01
    -14.489  0.3698E+00  0.5772E+01
    -14.363  0.2030E+00  0.5797E+01
    -14.237  0.4055E+00  0.5848E+01
    -14.111  0.3380E+00  0.5891E+01
    -13.985  0.7316E-01  0.5900E+01
    -13.859  0.3686E-02  0.5900E+01
    -13.733  0.2633E+00  0.5934E+01
    -13.607  0.1299E+00  0.5950E+01
    -13.481  0.6080E-04  0.5950E+01
    -13.355  0.7774E-10  0.5950E+01
    -13.230  0.9628E-03  0.5950E+01
    -13.104  0.1687E+00  0.5971E+01
    -12.978  0.2135E+00  0.5998E+01
    -12.852  0.1375E-01  0.6000E+01
    -12.726  0.4871E-07  0.6000E+01
    -12.600  0.0000E+00  0.6000E+01
    -12.474  0.2631E-08  0.6000E+01
    -12.348  0.5116E-02  0.6001E+01
    -12.222  0.3400E+00  0.6043E+01
    -12.096  0.1434E+00  0.6062E+01
    -11.970  0.2796E+00  0.6097E+01
    -11.844  0.2588E-01  0.6100E+01
    -11.718  0.8159E-01  0.6110E+01
    -11.592  0.3140E+00  0.6150E+01
    -11.466  0.1361E-02  0.6150E+01
    -11.340  0.1723E-01  0.6152E+01
    -11.214  0.3638E+00  0.6198E+01
    -11.088  0.3162E+00  0.6238E+01
    -10.962  0.9667E-01  0.6250E+01
    -10.836  0.2024E-04  0.6250E+01
    -10.710  0.3839E-13  0.6250E+01
    -10.584  0.0000E+00  0.6250E+01
    -10.459  0.0000E+00  0.6250E+01
    -10.333  0.4424E-08  0.6250E+01
    -10.207  0.7051E-02  0.6251E+01
    -10.081  0.3555E+00  0.6296E+01
     -9.955  0.3444E-01  0.6300E+01
     -9.829  0.2508E-06  0.6300E+01
     -9.703  0.0000E+00  0.6300E+01
     -9.577  0.0000E+00  0.6300E+01
     -9.451  0.0000E+00  0.6300E+01
     -9.325  0.0000E+00  0.6300E+01
     -9.199  0.0000E+00  0.6300E+01
     -9.073  0.0000E+00  0.6300E+01
     -8.947  0.0000E+00  0.6300E+01
     -8.821  0.0000E+00  0.6300E+01
     -8.695  0.0000E+00  0.6300E+01
     -8.569  0.0000E+00  0.6300E+01
     -8.443  0.0000E+00  0.6300E+01
     -8.317  0.0000E+00  0.6300E+01
     -8.191  0.0000E+00  0.6300E+01
     -8.065  0.0000E+00  0.6300E+01
     -7.939  0.0000E+00  0.6300E+01
     -7.813  0.0000E+00  0.6300E+01
     -7.688  0.0000E+00  0.6300E+01
     -7.562  0.0000E+00  0.6300E+01
     -7.436  0.0000E+00  0.6300E+01
     -7.310  0.0000E+00  0.6300E+01
     -7.184  0.4466E-13  0.6300E+01
     -7.058  0.1692E-04  0.6300E+01
     -6.932  0.5786E-01  0.6307E+01
     -6.806  0.3081E+00  0.6346E+01
     -6.680  0.3813E+00  0.6394E+01
     -6.554  0.4748E+00  0.6454E+01
     -6.428  0.5261E+00  0.6520E+01
     -6.302  0.9459E+00  0.6639E+01
     -6.176  0.9544E+00  0.6760E+01
     -6.050  0.8850E+00  0.6871E+01
     -5.924  0.1186E+01  0.7020E+01
     -5.798  0.1492E+01  0.7208E+01
     -5.672  0.2240E+01  0.7490E+01
     -5.546  0.2177E+01  0.7765E+01
     -5.420  0.2079E+01  0.8026E+01
     -5.294  0.2272E+01  0.8313E+01
     -5.168  0.2580E+01  0.8638E+01
     -5.043  0.2082E+01  0.8900E+01
     -4.917  0.2696E+01  0.9239E+01
     -4.791  0.3017E+01  0.9619E+01
     -4.665  0.2912E+01  0.9986E+01
     -4.539  0.3318E+01  0.1040E+02
     -4.413  0.2908E+01  0.1077E+02
     -4.287  0.2832E+01  0.1113E+02
     -4.161  0.3220E+01  0.1153E+02
     -4.035  0.3203E+01  0.1194E+02
     -3.909  0.3060E+01  0.1232E+02
     -3.783  0.2881E+01  0.1268E+02
     -3.657  0.3007E+01  0.1306E+02
     -3.531  0.3315E+01  0.1348E+02
     -3.405  0.3051E+01  0.1386E+02
     -3.279  0.3169E+01  0.1426E+02
     -3.153  0.3256E+01  0.1467E+02
     -3.027  0.3011E+01  0.1505E+02
     -2.901  0.2901E+01  0.1542E+02
     -2.775  0.2940E+01  0.1579E+02
     -2.649  0.2993E+01  0.1617E+02
     -2.523  0.3040E+01  0.1655E+02
     -2.397  0.3054E+01  0.1693E+02
     -2.272  0.2925E+01  0.1730E+02
     -2.146  0.2477E+01  0.1761E+02
     -2.020  0.2747E+01  0.1796E+02
     -1.894  0.3427E+01  0.1839E+02
     -1.768  0.3541E+01  0.1884E+02
     -1.642  0.3281E+01  0.1925E+02
     -1.516  0.3223E+01  0.1966E+02
     -1.390  0.3119E+01  0.2005E+02
     -1.264  0.3206E+01  0.2045E+02
     -1.138  0.3649E+01  0.2091E+02
     -1.012  0.3653E+01  0.2137E+02
     -0.886  0.3439E+01  0.2181E+02
     -0.760  0.3828E+01  0.2229E+02
     -0.634  0.3377E+01  0.2271E+02
     -0.508  0.4286E+01  0.2325E+02
     -0.382  0.4072E+01  0.2377E+02
     -0.256  0.4379E+01  0.2432E+02
     -0.130  0.4800E+01  0.2492E+02
     -0.004  0.4612E+01  0.2550E+02
      0.122  0.4865E+01  0.2612E+02
      0.248  0.5331E+01  0.2679E+02
      0.374  0.5401E+01  0.2747E+02
      0.499  0.6031E+01  0.2823E+02
      0.625  0.5418E+01  0.2891E+02
      0.751  0.5820E+01  0.2964E+02
      0.877  0.5939E+01  0.3039E+02
      1.003  0.6165E+01  0.3117E+02
      1.129  0.5946E+01  0.3192E+02
      1.255  0.6449E+01  0.3273E+02
      1.381  0.6614E+01  0.3356E+02
      1.507  0.6747E+01  0.3441E+02
      1.633  0.6841E+01  0.3527E+02
      1.759  0.7078E+01  0.3617E+02
      1.885  0.7827E+01  0.3715E+02
      2.011  0.8029E+01  0.3816E+02
      2.137  0.8215E+01  0.3920E+02
      2.263  0.8470E+01  0.4026E+02
      2.389  0.8654E+01  0.4135E+02
      2.515  0.8503E+01  0.4242E+02
      2.641  0.7623E+01  0.4338E+02
      2.767  0.8040E+01  0.4440E+02
      2.893  0.7866E+01  0.4539E+02
      3.019  0.7939E+01  0.4639E+02
      3.145  0.7717E+01  0.4736E+02
      3.270  0.7830E+01  0.4835E+02
      3.396  0.7438E+01  0.4928E+02
      3.522  0.6867E+01  0.5015E+02
      3.648  0.6442E+01  0.5096E+02
      3.774  0.5301E+01  0.5163E+02
      3.900  0.4519E+01  0.5220E+02
      4.026  0.4466E+01  0.5276E+02
      4.152  0.4411E+01  0.5331E+02
      4.278  0.3890E+01  0.5380E+02
      4.404  0.3662E+01  0.5427E+02
      4.530  0.3500E+01  0.5471E+02
      4.656  0.3361E+01  0.5513E+02
      4.782  0.2556E+01  0.5545E+02
      4.908  0.2637E+01  0.5578E+02
      5.034  0.2062E+01  0.5604E+02
      5.160  0.1459E+01  0.5623E+02
      5.286  0.9396E+00  0.5635E+02
      5.412  0.3810E+00  0.5639E+02
      5.538  0.4411E+00  0.5645E+02
      5.664  0.5167E+00  0.5651E+02
      5.790  0.7206E+00  0.5661E+02
      5.916  0.5430E+00  0.5667E+02
      6.041  0.4592E+00  0.5673E+02
      6.167  0.6257E+00  0.5681E+02
      6.293  0.7742E+00  0.5691E+02
      6.419  0.7850E+00  0.5701E+02
      6.545  0.6757E+00  0.5709E+02
      6.671  0.8507E+00  0.5720E+02
      6.797  0.8960E+00  0.5731E+02
      6.923  0.6750E+00  0.5740E+02
      7.049  0.7441E+00  0.5749E+02
      7.175  0.1241E+01  0.5765E+02
      7.301  0.3193E+00  0.5769E+02
      7.427  0.4593E+00  0.5775E+02
      7.553  0.1396E+01  0.5792E+02
      7.679  0.1045E+01  0.5805E+02
      7.805  0.8818E+00  0.5816E+02
      7.931  0.1049E+01  0.5830E+02
      8.057  0.1069E+01  0.5843E+02
      8.183  0.7368E+00  0.5852E+02
      8.309  0.9970E+00  0.5865E+02
      8.435  0.6432E+00  0.5873E+02
      8.561  0.9789E+00  0.5885E+02
      8.687  0.8929E+00  0.5897E+02
      8.812  0.1421E+01  0.5914E+02
      8.938  0.8626E+00  0.5925E+02
      9.064  0.7488E+00  0.5935E+02
      9.190  0.1195E+01  0.5950E+02
      9.316  0.1210E+01  0.5965E+02
      9.442  0.9660E+00  0.5977E+02
      9.568  0.9217E+00  0.5989E+02
      9.694  0.1305E+01  0.6005E+02
      9.820  0.6622E+00  0.6014E+02
      9.946  0.1099E+00  0.6015E+02
     10.072  0.1161E-02  0.6015E+02
     10.198  0.2757E-09  0.6015E+02
     10.324  0.0000E+00  0.6015E+02
     10.450  0.0000E+00  0.6015E+02
     10.576  0.0000E+00  0.6015E+02
     10.702  0.0000E+00  0.6015E+02
     10.828  0.0000E+00  0.6015E+02
     10.954  0.0000E+00  0.6015E+02
     11.080  0.0000E+00  0.6015E+02
     11.206  0.0000E+00  0.6015E+02
     11.332  0.0000E+00  0.6015E+02
     11.458  0.0000E+00  0.6015E+02
     11.583  0.0000E+00  0.6015E+02
