 251 251   0   0
  0.1094305E+02  0.1054150E-08  0.1054150E-08  0.2854150E-08  0.2000000E-15
   1.0000000000000000E-004
  CAR 
 NiAl                                    
     11.48415115    -25.94140010  301      3.27014203      1.00000000
    -25.941  0.0000E+00  0.0000E+00
    -25.817  0.0000E+00  0.0000E+00
    -25.692  0.0000E+00  0.0000E+00
    -25.567  0.0000E+00  0.0000E+00
    -25.442  0.0000E+00  0.0000E+00
    -25.318  0.0000E+00  0.0000E+00
    -25.193  0.0000E+00  0.0000E+00
    -25.068  0.0000E+00  0.0000E+00
    -24.943  0.0000E+00  0.0000E+00
    -24.819  0.0000E+00  0.0000E+00
    -24.694  0.0000E+00  0.0000E+00
    -24.569  0.0000E+00  0.0000E+00
    -24.444  0.1519E-08  0.1895E-09
    -24.320  0.4912E-02  0.6127E-03
    -24.195  0.3557E+00  0.4498E-01
    -24.070  0.4023E-01  0.5000E-01
    -23.945  0.3056E-06  0.5000E-01
    -23.821  0.1065E-13  0.5000E-01
    -23.696  0.1492E-04  0.5000E-01
    -23.571  0.2060E+00  0.7569E-01
    -23.446  0.5937E+00  0.1498E+00
    -23.322  0.1961E-02  0.1500E+00
    -23.197  0.1218E-09  0.1500E+00
    -23.072  0.3821E-14  0.1500E+00
    -22.947  0.9210E-05  0.1500E+00
    -22.823  0.1878E+00  0.1734E+00
    -22.698  0.6116E+00  0.2497E+00
    -22.573  0.2156E-02  0.2500E+00
    -22.448  0.1243E-09  0.2500E+00
    -22.324  0.0000E+00  0.2500E+00
    -22.199  0.0000E+00  0.2500E+00
    -22.074  0.0000E+00  0.2500E+00
    -21.949  0.0000E+00  0.2500E+00
    -21.825  0.6273E-09  0.2500E+00
    -21.700  0.3813E-02  0.2505E+00
    -21.575  0.6185E+00  0.3276E+00
    -21.450  0.3527E+00  0.3716E+00
    -21.326  0.2272E+00  0.4000E+00
    -21.201  0.1676E-03  0.4000E+00
    -21.076  0.6755E-01  0.4084E+00
    -20.951  0.2658E+00  0.4416E+00
    -20.827  0.2365E+00  0.4711E+00
    -20.702  0.1002E+00  0.4836E+00
    -20.577  0.8603E+00  0.5909E+00
    -20.452  0.7291E-01  0.6000E+00
    -20.328  0.7879E-01  0.6098E+00
    -20.203  0.2190E+00  0.6372E+00
    -20.078  0.2215E+00  0.6648E+00
    -19.953  0.2307E+00  0.6936E+00
    -19.829  0.6113E+00  0.7698E+00
    -19.704  0.1620E+00  0.7900E+00
    -19.579  0.5596E+00  0.8599E+00
    -19.454  0.5170E+00  0.9244E+00
    -19.330  0.5845E+00  0.9973E+00
    -19.205  0.2257E+00  0.1025E+01
    -19.080  0.8654E+00  0.1133E+01
    -18.955  0.7220E+00  0.1223E+01
    -18.831  0.6792E+00  0.1308E+01
    -18.706  0.6761E+00  0.1393E+01
    -18.581  0.6757E+00  0.1477E+01
    -18.456  0.1319E+01  0.1641E+01
    -18.332  0.5757E+00  0.1713E+01
    -18.207  0.7348E+00  0.1805E+01
    -18.082  0.1391E+01  0.1978E+01
    -17.957  0.1213E+01  0.2130E+01
    -17.833  0.9221E+00  0.2245E+01
    -17.708  0.1004E+01  0.2370E+01
    -17.583  0.1348E+01  0.2538E+01
    -17.458  0.1496E+01  0.2725E+01
    -17.334  0.1362E+01  0.2895E+01
    -17.209  0.1219E+01  0.3047E+01
    -17.084  0.1485E+01  0.3232E+01
    -16.959  0.1065E+01  0.3365E+01
    -16.835  0.9303E+00  0.3481E+01
    -16.710  0.1043E+01  0.3611E+01
    -16.585  0.1213E+01  0.3762E+01
    -16.460  0.1582E+01  0.3960E+01
    -16.336  0.1230E+01  0.4113E+01
    -16.211  0.1200E+01  0.4263E+01
    -16.086  0.1135E+01  0.4405E+01
    -15.961  0.1260E+01  0.4562E+01
    -15.837  0.2373E+01  0.4858E+01
    -15.712  0.1483E+01  0.5043E+01
    -15.587  0.1270E+01  0.5201E+01
    -15.462  0.1009E+01  0.5327E+01
    -15.337  0.1216E+01  0.5479E+01
    -15.213  0.1049E+01  0.5610E+01
    -15.088  0.5285E+00  0.5676E+01
    -14.963  0.1761E+00  0.5698E+01
    -14.838  0.1838E+00  0.5720E+01
    -14.714  0.1985E+00  0.5745E+01
    -14.589  0.3832E-01  0.5750E+01
    -14.464  0.1075E-05  0.5750E+01
    -14.339  0.2290E-08  0.5750E+01
    -14.215  0.3982E-02  0.5750E+01
    -14.090  0.2800E+00  0.5785E+01
    -13.965  0.1168E+00  0.5800E+01
    -13.840  0.4784E-04  0.5800E+01
    -13.716  0.2609E-12  0.5800E+01
    -13.591  0.2410E-04  0.5800E+01
    -13.466  0.1502E+00  0.5819E+01
    -13.341  0.2503E+00  0.5850E+01
    -13.217  0.2689E-03  0.5850E+01
    -13.092  0.5138E-05  0.5850E+01
    -12.967  0.1248E+00  0.5866E+01
    -12.842  0.6683E+00  0.5949E+01
    -12.718  0.4698E-01  0.5955E+01
    -12.593  0.3550E+00  0.5999E+01
    -12.468  0.1156E-01  0.6001E+01
    -12.343  0.3368E+00  0.6043E+01
    -12.219  0.5986E-01  0.6050E+01
    -12.094  0.3556E-03  0.6050E+01
    -11.969  0.2624E+00  0.6083E+01
    -11.844  0.1390E+00  0.6100E+01
    -11.720  0.2997E+00  0.6138E+01
    -11.595  0.1002E+00  0.6150E+01
    -11.470  0.5742E-05  0.6150E+01
    -11.345  0.5554E-08  0.6150E+01
    -11.221  0.8544E-02  0.6151E+01
    -11.096  0.3655E+00  0.6197E+01
    -10.971  0.2674E-01  0.6200E+01
    -10.846  0.9893E-07  0.6200E+01
    -10.722  0.0000E+00  0.6200E+01
    -10.597  0.0000E+00  0.6200E+01
    -10.472  0.0000E+00  0.6200E+01
    -10.347  0.0000E+00  0.6200E+01
    -10.223  0.0000E+00  0.6200E+01
    -10.098  0.0000E+00  0.6200E+01
     -9.973  0.4890E-12  0.6200E+01
     -9.848  0.8359E-04  0.6200E+01
     -9.724  0.2138E+00  0.6227E+01
     -9.599  0.5769E+00  0.6299E+01
     -9.474  0.1081E-01  0.6300E+01
     -9.349  0.1385E-07  0.6300E+01
     -9.225  0.0000E+00  0.6300E+01
     -9.100  0.0000E+00  0.6300E+01
     -8.975  0.2915E-14  0.6300E+01
     -8.850  0.4631E-05  0.6300E+01
     -8.726  0.5866E-01  0.6307E+01
     -8.601  0.1414E+00  0.6325E+01
     -8.476  0.3939E-02  0.6325E+01
     -8.351  0.2999E+00  0.6363E+01
     -8.227  0.2024E+00  0.6388E+01
     -8.102  0.1531E+00  0.6407E+01
     -7.977  0.6122E+00  0.6484E+01
     -7.852  0.5158E+00  0.6548E+01
     -7.728  0.3392E-01  0.6552E+01
     -7.603  0.2105E+00  0.6578E+01
     -7.478  0.5691E+00  0.6649E+01
     -7.353  0.6012E+00  0.6724E+01
     -7.229  0.8768E+00  0.6834E+01
     -7.104  0.1005E+01  0.6959E+01
     -6.979  0.6110E+00  0.7035E+01
     -6.854  0.1158E+01  0.7180E+01
     -6.730  0.1163E+01  0.7325E+01
     -6.605  0.1454E+01  0.7506E+01
     -6.480  0.2137E+01  0.7773E+01
     -6.355  0.1936E+01  0.8014E+01
     -6.231  0.1779E+01  0.8236E+01
     -6.106  0.2015E+01  0.8488E+01
     -5.981  0.1845E+01  0.8718E+01
     -5.856  0.1866E+01  0.8951E+01
     -5.732  0.1925E+01  0.9191E+01
     -5.607  0.2216E+01  0.9467E+01
     -5.482  0.2627E+01  0.9795E+01
     -5.357  0.2427E+01  0.1010E+02
     -5.233  0.2749E+01  0.1044E+02
     -5.108  0.2692E+01  0.1078E+02
     -4.983  0.2883E+01  0.1114E+02
     -4.858  0.2579E+01  0.1146E+02
     -4.734  0.2560E+01  0.1178E+02
     -4.609  0.3217E+01  0.1218E+02
     -4.484  0.3265E+01  0.1259E+02
     -4.359  0.2920E+01  0.1295E+02
     -4.235  0.3064E+01  0.1333E+02
     -4.110  0.3253E+01  0.1374E+02
     -3.985  0.3035E+01  0.1412E+02
     -3.860  0.3088E+01  0.1450E+02
     -3.736  0.2897E+01  0.1486E+02
     -3.611  0.2504E+01  0.1518E+02
     -3.486  0.2613E+01  0.1550E+02
     -3.361  0.2567E+01  0.1582E+02
     -3.237  0.2179E+01  0.1609E+02
     -3.112  0.2862E+01  0.1645E+02
     -2.987  0.2896E+01  0.1681E+02
     -2.862  0.2453E+01  0.1712E+02
     -2.738  0.2704E+01  0.1746E+02
     -2.613  0.2382E+01  0.1775E+02
     -2.488  0.2515E+01  0.1807E+02
     -2.363  0.2799E+01  0.1842E+02
     -2.239  0.2864E+01  0.1877E+02
     -2.114  0.3019E+01  0.1915E+02
     -1.989  0.3155E+01  0.1954E+02
     -1.864  0.3997E+01  0.2004E+02
     -1.740  0.4000E+01  0.2054E+02
     -1.615  0.3940E+01  0.2103E+02
     -1.490  0.3981E+01  0.2153E+02
     -1.365  0.3806E+01  0.2200E+02
     -1.241  0.3843E+01  0.2248E+02
     -1.116  0.4064E+01  0.2299E+02
     -0.991  0.4572E+01  0.2356E+02
     -0.866  0.4405E+01  0.2411E+02
     -0.742  0.4453E+01  0.2467E+02
     -0.617  0.4545E+01  0.2523E+02
     -0.492  0.4584E+01  0.2580E+02
     -0.367  0.5113E+01  0.2644E+02
     -0.243  0.4986E+01  0.2706E+02
     -0.118  0.5441E+01  0.2774E+02
      0.007  0.5375E+01  0.2841E+02
      0.132  0.5174E+01  0.2906E+02
      0.256  0.5160E+01  0.2970E+02
      0.381  0.5383E+01  0.3037E+02
      0.506  0.5486E+01  0.3106E+02
      0.631  0.5633E+01  0.3176E+02
      0.755  0.5816E+01  0.3249E+02
      0.880  0.6204E+01  0.3326E+02
      1.005  0.6358E+01  0.3405E+02
      1.130  0.6162E+01  0.3482E+02
      1.255  0.6006E+01  0.3557E+02
      1.379  0.6531E+01  0.3639E+02
      1.504  0.6744E+01  0.3723E+02
      1.629  0.6762E+01  0.3807E+02
      1.754  0.7083E+01  0.3896E+02
      1.878  0.7385E+01  0.3988E+02
      2.003  0.7646E+01  0.4083E+02
      2.128  0.7451E+01  0.4176E+02
      2.253  0.7107E+01  0.4265E+02
      2.377  0.7241E+01  0.4355E+02
      2.502  0.7388E+01  0.4447E+02
      2.627  0.7456E+01  0.4540E+02
      2.752  0.8001E+01  0.4640E+02
      2.876  0.7968E+01  0.4739E+02
      3.001  0.7384E+01  0.4832E+02
      3.126  0.7038E+01  0.4919E+02
      3.251  0.6546E+01  0.5001E+02
      3.375  0.6317E+01  0.5080E+02
      3.500  0.5320E+01  0.5146E+02
      3.625  0.4942E+01  0.5208E+02
      3.750  0.4375E+01  0.5262E+02
      3.874  0.4323E+01  0.5316E+02
      3.999  0.3857E+01  0.5364E+02
      4.124  0.3680E+01  0.5410E+02
      4.249  0.3166E+01  0.5450E+02
      4.373  0.3053E+01  0.5488E+02
      4.498  0.2769E+01  0.5523E+02
      4.623  0.2149E+01  0.5549E+02
      4.748  0.1968E+01  0.5574E+02
      4.872  0.1627E+01  0.5594E+02
      4.997  0.1228E+01  0.5609E+02
      5.122  0.1175E+01  0.5624E+02
      5.247  0.7121E+00  0.5633E+02
      5.371  0.7386E+00  0.5642E+02
      5.496  0.3941E+00  0.5647E+02
      5.621  0.7142E+00  0.5656E+02
      5.746  0.3190E+00  0.5660E+02
      5.870  0.4274E+00  0.5665E+02
      5.995  0.5069E+00  0.5672E+02
      6.120  0.6955E+00  0.5680E+02
      6.245  0.4439E+00  0.5686E+02
      6.369  0.6641E+00  0.5694E+02
      6.494  0.7365E+00  0.5703E+02
      6.619  0.7820E+00  0.5713E+02
      6.744  0.7158E+00  0.5722E+02
      6.868  0.6558E+00  0.5730E+02
      6.993  0.8111E+00  0.5740E+02
      7.118  0.4195E+00  0.5746E+02
      7.243  0.8629E+00  0.5756E+02
      7.367  0.7646E+00  0.5766E+02
      7.492  0.7399E+00  0.5775E+02
      7.617  0.6142E+00  0.5783E+02
      7.742  0.6507E+00  0.5791E+02
      7.866  0.8170E+00  0.5801E+02
      7.991  0.1177E+01  0.5816E+02
      8.116  0.8059E+00  0.5826E+02
      8.241  0.1017E+01  0.5839E+02
      8.365  0.9713E+00  0.5851E+02
      8.490  0.1308E+01  0.5867E+02
      8.615  0.1140E+01  0.5881E+02
      8.740  0.1136E+01  0.5895E+02
      8.864  0.1326E+01  0.5912E+02
      8.989  0.1275E+01  0.5928E+02
      9.114  0.1165E+01  0.5942E+02
      9.239  0.1432E+01  0.5960E+02
      9.363  0.1304E+01  0.5976E+02
      9.488  0.1091E+01  0.5990E+02
      9.613  0.1004E+01  0.6003E+02
      9.738  0.8791E+00  0.6014E+02
      9.862  0.1145E+00  0.6015E+02
      9.987  0.1240E-02  0.6015E+02
     10.112  0.3880E-09  0.6015E+02
     10.237  0.0000E+00  0.6015E+02
     10.361  0.0000E+00  0.6015E+02
     10.486  0.0000E+00  0.6015E+02
     10.611  0.0000E+00  0.6015E+02
     10.736  0.0000E+00  0.6015E+02
     10.860  0.0000E+00  0.6015E+02
     10.985  0.0000E+00  0.6015E+02
     11.110  0.0000E+00  0.6015E+02
     11.235  0.0000E+00  0.6015E+02
     11.359  0.0000E+00  0.6015E+02
     11.484  0.0000E+00  0.6015E+02
