         259
 Energy:   556.63400469999999     
 X   0.00000000       0.00000000       0.00000000    
 X   10.5415001       0.00000000       0.00000000    
 X   5.27075005       9.12920666       0.00000000    
 X   0.00000000       0.00000000       28.5415001    
 X   15.8122501       9.12920666       0.00000000    
 X   10.5415001       0.00000000       28.5415001    
 X   5.27075005       9.12920666       28.5415001    
 X   15.8122501       9.12920666       28.5415001    
 Ni   0.00000000       0.00000000       0.00000000    
 Ni   0.00000000       0.00000000       2.10829997    
 Ni   0.00000000       0.00000000       4.21659994    
 Ni   0.00000000       0.00000000       6.32490015    
 Ni   0.00000000       0.00000000       8.43319988    
 Ni   1.05414999       1.82584000       0.00000000    
 Ni   1.05414999       1.82584000       2.10829997    
 Ni   1.05414999       1.82584000       4.21659994    
 Ni   1.05414999       1.82584000       6.32490015    
 Ni   1.05414999       1.82584000       8.43319988    
 Ni   2.10829997       3.65167999       0.00000000    
 Ni   2.10829997       3.65167999       2.10829997    
 Ni   2.10829997       3.65167999       4.21659994    
 Ni   2.10829997       3.65167999       6.32490015    
 Ni   2.10829997       3.65167999       8.43319988    
 Ni   3.16245008       5.47751999       0.00000000    
 Ni   3.16245008       5.47751999       2.10829997    
 Ni   3.16245008       5.47751999       4.21659994    
 Ni   3.16245008       5.47751999       6.32490015    
 Ni   3.16245008       5.47751999       8.43319988    
 Ni   4.21659994       7.30337000       0.00000000    
 Ni   4.21659994       7.30337000       2.10829997    
 Ni   4.21659994       7.30337000       4.21659994    
 Ni   4.21659994       7.30337000       6.32490015    
 Ni   4.21659994       7.30337000       8.43319988    
 Ni   2.10829997       0.00000000       0.00000000    
 Ni   2.10829997       0.00000000       2.10829997    
 Ni   2.10829997       0.00000000       4.21659994    
 Ni   2.10829997       0.00000000       6.32490015    
 Ni   2.10829997       0.00000000       8.43319988    
 Ni   3.16245008       1.82584000       0.00000000    
 Ni   3.16245008       1.82584000       2.10829997    
 Ni   3.16245008       1.82584000       4.21659994    
 Ni   3.16245008       1.82584000       6.32490015    
 Ni   3.16245008       1.82584000       8.43319988    
 Ni   4.21659994       3.65167999       0.00000000    
 Ni   4.21659994       3.65167999       2.10829997    
 Ni   4.21659994       3.65167999       4.21659994    
 Ni   4.21659994       3.65167999       6.32490015    
 Ni   4.21659994       3.65167999       8.43319988    
 Ni   5.27075005       5.47751999       0.00000000    
 Ni   5.27075005       5.47751999       2.10829997    
 Ni   5.27075005       5.47751999       4.21659994    
 Ni   5.27075005       5.47751999       6.32490015    
 Ni   5.27075005       5.47751999       8.43319988    
 Ni   6.32490015       7.30337000       0.00000000    
 Ni   6.32490015       7.30337000       2.10829997    
 Ni   6.32490015       7.30337000       4.21659994    
 Ni   6.32490015       7.30337000       6.32490015    
 Ni   6.32490015       7.30337000       8.43319988    
 Ni   4.21659994       0.00000000       0.00000000    
 Ni   4.21659994       0.00000000       2.10829997    
 Ni   4.21659994       0.00000000       4.21659994    
 Ni   4.21659994       0.00000000       6.32490015    
 Ni   4.21659994       0.00000000       8.43319988    
 Ni   5.27075005       1.82584000       0.00000000    
 Ni   5.27075005       1.82584000       2.10829997    
 Ni   5.27075005       1.82584000       4.21659994    
 Ni   5.27075005       1.82584000       6.32490015    
 Ni   5.27075005       1.82584000       8.43319988    
 Ni   6.32490015       3.65167999       0.00000000    
 Ni   6.32490015       3.65167999       2.10829997    
 Ni   6.32490015       3.65167999       4.21659994    
 Ni   6.32490015       3.65167999       6.32490015    
 Ni   6.32490015       3.65167999       8.43319988    
 Ni   7.37904978       5.47751999       0.00000000    
 Ni   7.37904978       5.47751999       2.10829997    
 Ni   7.37904978       5.47751999       4.21659994    
 Ni   7.37904978       5.47751999       6.32490015    
 Ni   7.37904978       5.47751999       8.43319988    
 Ni   8.43319988       7.30337000       0.00000000    
 Ni   8.43319988       7.30337000       2.10829997    
 Ni   8.43319988       7.30337000       4.21659994    
 Ni   8.43319988       7.30337000       6.32490015    
 Ni   8.43319988       7.30337000       8.43319988    
 Ni   6.32490015       0.00000000       0.00000000    
 Ni   6.32490015       0.00000000       2.10829997    
 Ni   6.32490015       0.00000000       4.21659994    
 Ni   6.32490015       0.00000000       6.32490015    
 Ni   6.32490015       0.00000000       8.43319988    
 Ni   7.37904978       1.82584000       0.00000000    
 Ni   7.37904978       1.82584000       2.10829997    
 Ni   7.37904978       1.82584000       4.21659994    
 Ni   7.37904978       1.82584000       6.32490015    
 Ni   7.37904978       1.82584000       8.43319988    
 Ni   8.43319988       3.65167999       0.00000000    
 Ni   8.43319988       3.65167999       2.10829997    
 Ni   8.43319988       3.65167999       4.21659994    
 Ni   8.43319988       3.65167999       6.32490015    
 Ni   8.43319988       3.65167999       8.43319988    
 Ni   9.48735046       5.47751999       0.00000000    
 Ni   9.48735046       5.47751999       2.10829997    
 Ni   9.48735046       5.47751999       4.21659994    
 Ni   9.48735046       5.47751999       6.32490015    
 Ni   9.48735046       5.47751999       8.43319988    
 Ni   10.5415001       7.30337000       0.00000000    
 Ni   10.5415001       7.30337000       2.10829997    
 Ni   10.5415001       7.30337000       4.21659994    
 Ni   10.5415001       7.30337000       6.32490015    
 Ni   10.5415001       7.30337000       8.43319988    
 Ni   8.43319988       0.00000000       0.00000000    
 Ni   8.43319988       0.00000000       2.10829997    
 Ni   8.43319988       0.00000000       4.21659994    
 Ni   8.43319988       0.00000000       6.32490015    
 Ni   8.43319988       0.00000000       8.43319988    
 Ni   9.48735046       1.82584000       0.00000000    
 Ni   9.48735046       1.82584000       2.10829997    
 Ni   9.48735046       1.82584000       4.21659994    
 Ni   9.48735046       1.82584000       6.32490015    
 Ni   9.48735046       1.82584000       8.43319988    
 Ni   10.5415001       3.65167999       0.00000000    
 Ni   10.5415001       3.65167999       2.10829997    
 Ni   10.5415001       3.65167999       4.21659994    
 Ni   10.5415001       3.65167999       6.32490015    
 Ni   10.5415001       3.65167999       8.43319988    
 Ni   11.5956497       5.47751999       0.00000000    
 Ni   11.5956497       5.47751999       2.10829997    
 Ni   11.5956497       5.47751999       4.21659994    
 Ni   11.5956497       5.47751999       6.32490015    
 Ni   11.5956497       5.47751999       8.43319988    
 Ni   12.6498003       7.30337000       0.00000000    
 Ni   12.6498003       7.30337000       2.10829997    
 Ni   12.6498003       7.30337000       4.21659994    
 Ni   12.6498003       7.30337000       6.32490015    
 Ni   12.6498003       7.30337000       8.43319988    
 O    1.58123004      0.912919998       1.05414999    
 O    1.58123004      0.912919998       3.16245008    
 O    1.58123004      0.912919998       5.27075005    
 O    1.58123004      0.912919998       7.37904978    
 O    1.58123004      0.912919998       9.48735046    
 O    2.63538003       2.73875999       1.05414999    
 O    2.63538003       2.73875999       3.16245008    
 O    2.63538003       2.73875999       5.27075005    
 O    2.63538003       2.73875999       7.37904978    
 O    2.63538003       2.73875999       9.48735046    
 O    3.68952990       4.56459999       1.05414999    
 O    3.68952990       4.56459999       3.16245008    
 O    3.68952990       4.56459999       5.27075005    
 O    3.68952990       4.56459999       7.37904978    
 O    3.68952990       4.56459999       9.48735046    
 O    4.74366999       6.39043999       1.05414999    
 O    4.74366999       6.39043999       3.16245008    
 O    4.74366999       6.39043999       5.27075005    
 O    4.74366999       6.39043999       7.37904978    
 O    4.74366999       6.39043999       9.48735046    
 O    5.79782009       8.21629047       1.05414999    
 O    5.79782009       8.21629047       3.16245008    
 O    5.79782009       8.21629047       5.27075005    
 O    5.79782009       8.21629047       7.37904978    
 O    5.79782009       8.21629047       9.48735046    
 O    3.68952990      0.912919998       1.05414999    
 O    3.68952990      0.912919998       3.16245008    
 O    3.68952990      0.912919998       5.27075005    
 O    3.68952990      0.912919998       7.37904978    
 O    3.68952990      0.912919998       9.48735046    
 O    4.74368000       2.73875999       1.05414999    
 O    4.74368000       2.73875999       3.16245008    
 O    4.74368000       2.73875999       5.27075005    
 O    4.74368000       2.73875999       7.37904978    
 O    4.74368000       2.73875999       9.48735046    
 O    5.79783010       4.56459999       1.05414999    
 O    5.79783010       4.56459999       3.16245008    
 O    5.79783010       4.56459999       5.27075005    
 O    5.79783010       4.56459999       7.37904978    
 O    5.79783010       4.56459999       9.48735046    
 O    6.85198021       6.39043999       1.05414999    
 O    6.85198021       6.39043999       3.16245008    
 O    6.85198021       6.39043999       5.27075005    
 O    6.85198021       6.39043999       7.37904978    
 O    6.85198021       6.39043999       9.48735046    
 O    7.90612984       8.21629047       1.05414999    
 O    7.90612984       8.21629047       3.16245008    
 O    7.90612984       8.21629047       5.27075005    
 O    7.90612984       8.21629047       7.37904978    
 O    7.90612984       8.21629047       9.48735046    
 O    5.79783010      0.912919998       1.05414999    
 O    5.79783010      0.912919998       3.16245008    
 O    5.79783010      0.912919998       5.27075005    
 O    5.79783010      0.912919998       7.37904978    
 O    5.79783010      0.912919998       9.48735046    
 O    6.85198021       2.73875999       1.05414999    
 O    6.85198021       2.73875999       3.16245008    
 O    6.85198021       2.73875999       5.27075005    
 O    6.85198021       2.73875999       7.37904978    
 O    6.85198021       2.73875999       9.48735046    
 O    7.90612984       4.56459999       1.05414999    
 O    7.90612984       4.56459999       3.16245008    
 O    7.90612984       4.56459999       5.27075005    
 O    7.90612984       4.56459999       7.37904978    
 O    7.90612984       4.56459999       9.48735046    
 O    8.96028042       6.39043999       1.05414999    
 O    8.96028042       6.39043999       3.16245008    
 O    8.96028042       6.39043999       5.27075005    
 O    8.96028042       6.39043999       7.37904978    
 O    8.96028042       6.39043999       9.48735046    
 O    10.0144196       8.21629047       1.05414999    
 O    10.0144196       8.21629047       3.16245008    
 O    10.0144196       8.21629047       5.27075005    
 O    10.0144196       8.21629047       7.37904978    
 O    10.0144196       8.21629047       9.48735046    
 O    7.90611982      0.912919998       1.05414999    
 O    7.90611982      0.912919998       3.16245008    
 O    7.90611982      0.912919998       5.27075005    
 O    7.90611982      0.912919998       7.37904978    
 O    7.90611982      0.912919998       9.48735046    
 O    8.96028042       2.73875999       1.05414999    
 O    8.96028042       2.73875999       3.16245008    
 O    8.96028042       2.73875999       5.27075005    
 O    8.96028042       2.73875999       7.37904978    
 O    8.96028042       2.73875999       9.48735046    
 O    10.0144196       4.56459999       1.05414999    
 O    10.0144196       4.56459999       3.16245008    
 O    10.0144196       4.56459999       5.27075005    
 O    10.0144196       4.56459999       7.37904978    
 O    10.0144196       4.56459999       9.48735046    
 O    11.0685701       6.39043999       1.05414999    
 O    11.0685701       6.39043999       3.16245008    
 O    11.0685701       6.39043999       5.27075005    
 O    11.0685701       6.39043999       7.37904978    
 O    11.0685701       6.39043999       9.48735046    
 O    12.1227198       8.21629047       1.05414999    
 O    12.1227198       8.21629047       3.16245008    
 O    12.1227198       8.21629047       5.27075005    
 O    12.1227198       8.21629047       7.37904978    
 O    12.1227198       8.21629047       9.48735046    
 O    10.0144196      0.912919998       1.05414999    
 O    10.0144196      0.912919998       3.16245008    
 O    10.0144196      0.912919998       5.27075005    
 O    10.0144196      0.912919998       7.37904978    
 O    10.0144196      0.912919998       9.48735046    
 O    11.0685701       2.73875999       1.05414999    
 O    11.0685701       2.73875999       3.16245008    
 O    11.0685701       2.73875999       5.27075005    
 O    11.0685701       2.73875999       7.37904978    
 O    11.0685701       2.73875999       9.48735046    
 O    12.1227198       4.56459999       1.05414999    
 O    12.1227198       4.56459999       3.16245008    
 O    12.1227198       4.56459999       5.27075005    
 O    12.1227198       4.56459999       7.37904978    
 O    12.1227198       4.56459999       9.48735046    
 O    13.1768703       6.39043999       1.05414999    
 O    13.1768703       6.39043999       3.16245008    
 O    13.1768703       6.39043999       5.27075005    
 O    13.1768703       6.39043999       7.37904978    
 O    13.1768703       6.39043999       9.48735046    
 O    14.2310200       8.21629047       1.05414999    
 O    14.2310200       8.21629047       3.16245008    
 O    14.2310200       8.21629047       5.27075005    
 O    14.2310200       8.21629047       7.37904978    
 O    14.2310200       8.21629047       9.48735046    
 O    6.66359997       3.84722996       10.4873505    
         259
 Energy:   39.870308399999999     
 X   0.00000000       0.00000000       0.00000000    
 X   10.5415001       0.00000000       0.00000000    
 X   5.27075005       9.12920666       0.00000000    
 X   0.00000000       0.00000000       28.5415001    
 X   15.8122501       9.12920666       0.00000000    
 X   10.5415001       0.00000000       28.5415001    
 X   5.27075005       9.12920666       28.5415001    
 X   15.8122501       9.12920666       28.5415001    
 Ni   8.99999961E-03   5.18999994E-03 -0.527700007    
 Ni   3.22000007E-03   1.85999996E-03   2.07667994    
 Ni   9.10000002E-04   5.30000019E-04   4.18771982    
 Ni   1.09000003E-03   6.30000024E-04   6.28874016    
 Ni  -4.72000008E-03  -2.71999999E-03   8.66749954    
 Ni   1.04655004       1.82054996     -0.539820015    
 Ni   1.05054998       1.82070005       2.08186007    
 Ni   1.05719995       1.82887006       4.19669008    
 Ni   1.05226004       1.83018994       6.28920984    
 Ni   1.04122996       1.83115005       8.68173981    
 Ni   2.11434007       3.65202999     -0.535560012    
 Ni   2.11680007       3.65171003       2.08940005    
 Ni   2.10959005       3.65547991       4.20102978    
 Ni   2.10836005       3.65615010       6.27897978    
 Ni   2.11483002       3.65191007       8.65291023    
 Ni   3.16453004       5.46873999     -0.533760011    
 Ni   3.16419005       5.46941996       2.08148003    
 Ni   3.15908003       5.47877979       4.20401001    
 Ni   3.16564012       5.47452021       6.28264999    
 Ni   3.16928005       5.48233986       8.66434956    
 Ni   4.22203016       7.30385017     -0.542990029    
 Ni   4.22277021       7.30460978       2.08154011    
 Ni   4.21441984       7.30195999       4.20335007    
 Ni   4.21841002       7.29639006       6.30441999    
 Ni   4.22057009       7.29813004       8.61991024    
 Ni   2.09992003      -3.94000020E-03 -0.539820015    
 Ni   2.10205007      -5.49999997E-04   2.08186007    
 Ni   2.11244011       1.12999999E-03   4.19669008    
 Ni   2.11111999      -3.80999991E-03   6.28920984    
 Ni   2.10644007      -1.38400001E-02   8.68173981    
 Ni   3.16928005       1.82977998     -0.536989987    
 Ni   3.17088008       1.83071005       2.09127998    
 Ni   3.16576004       1.82774997       4.19224977    
 Ni   3.16525006       1.82746005       6.28658009    
 Ni   3.17076993       1.83064997       8.64260960    
 Ni   4.22418022       3.64690995     -0.534030020    
 Ni   4.22266006       3.64157009       2.08429003    
 Ni   4.21683979       3.64721990       4.19323015    
 Ni   4.21875000       3.65215993       6.28751993    
 Ni   4.22734022       3.65300012       8.66563034    
 Ni   5.27514982       5.47107983     -0.529919982    
 Ni   5.27255011       5.47094011       2.07091999    
 Ni   5.26873016       5.47382021       4.20109987    
 Ni   5.27261019       5.47502995       6.30915022    
 Ni   5.28739977       5.49151993       8.59817982    
 Ni   6.32649994       7.30855989     -0.529030025    
 Ni   6.32188988       7.31059980       2.07319999    
 Ni   6.32376003       7.30631018       4.19379997    
 Ni   6.32763004       7.29877996       6.30150986    
 Ni   6.32721996       7.29167986       8.64136982    
 Ni   4.21992016       5.05999988E-03 -0.535560012    
 Ni   4.22087002       7.35000009E-03   2.08940005    
 Ni   4.22054005      -7.80000002E-04   4.20102978    
 Ni   4.22049999      -2.18999991E-03   6.27897978    
 Ni   4.22005987       5.53999981E-03   8.65291023    
 Ni   5.27041006       1.83478999     -0.534030020    
 Ni   5.26501989       1.83615005       2.08429003    
 Ni   5.26701021       1.82827997       4.19323015    
 Ni   5.27224016       1.82746005       6.28751993    
 Ni   5.27725983       1.83448005       8.66563034    
 Ni   6.32037020       3.64907002     -0.525409997    
 Ni   6.31806993       3.64773989       2.07084990    
 Ni   6.32203007       3.65002990       4.19396019    
 Ni   6.32453012       3.65146995       6.30003977    
 Ni   6.31699991       3.64712000       8.54419994    
 Ni   7.37162018       5.47609997     -0.526809990    
 Ni   7.37270021       5.47474003       2.07030010    
 Ni   7.37913990       5.47587013       4.19747019    
 Ni   7.38044977       5.47684002       6.30583000    
 Ni   7.36912012       5.47503996       8.64731979    
 Ni   8.42724037       7.30149984     -0.536639988    
 Ni   8.43097973       7.30128002       2.08007002    
 Ni   8.43867016       7.30153990       4.20385981    
 Ni   8.43457031       7.29538012       6.29524994    
 Ni   8.41594982       7.28917980       8.64745045    
 Ni   6.31832981       6.19000010E-03 -0.533760011    
 Ni   6.31874990       5.55999996E-03   2.08148003    
 Ni   6.32429981      -3.53999995E-03   4.20401001    
 Ni   6.32390022       4.26999992E-03   6.28264999    
 Ni   6.33248997       3.50999995E-03   8.66434956    
 Ni   7.37566996       1.83287001     -0.529919982    
 Ni   7.37424994       1.83070004       2.07091999    
 Ni   7.37482977       1.82594001       4.20109987    
 Ni   7.37782001       1.82869995       6.30915022    
 Ni   7.39948988       1.83326006       8.59817982    
 Ni   8.42825031       3.64596009     -0.526809990    
 Ni   8.42761993       3.64757991       2.07030010    
 Ni   8.43181038       3.65259004       4.19747019    
 Ni   8.43330956       3.65322995       6.30583000    
 Ni   8.42607975       3.64433002       8.64731979    
 Ni   9.48416042       5.47567987     -0.535870016    
 Ni   9.48703003       5.47734022       2.08170009    
 Ni   9.49020958       5.47917986       4.20591021    
 Ni   9.48243046       5.47467995       6.28881979    
 Ni   9.46994972       5.46748018       8.64957047    
 Ni   10.5445995       7.30251980     -0.534600019    
 Ni   10.5474100       7.30463982       2.08639002    
 Ni   10.5449200       7.30100012       4.20371008    
 Ni   10.5411997       7.30511999       6.27373981    
 Ni   10.5365295       7.30209017       8.66191006    
 Ni   8.43632984       4.47000004E-03 -0.542990029    
 Ni   8.43737030       4.72000008E-03   2.08154011    
 Ni   8.43089008      -1.18000002E-03   4.20335007    
 Ni   8.42805958       5.04999980E-03   6.30441999    
 Ni   8.43064976       6.06000004E-03   8.61991024    
 Ni   9.49265003       1.82462001     -0.529030025    
 Ni   9.49211025       1.81962001       2.07319999    
 Ni   9.48933029       1.82337999       4.19379997    
 Ni   9.48474026       1.83048999       6.30150986    
 Ni   9.47838974       1.83369005       8.64136982    
 Ni   10.5369101       3.64745998     -0.536639988    
 Ni   10.5385799       3.65079999       2.08007002    
 Ni   10.5426502       3.65733004       4.20385981    
 Ni   10.5352602       3.65686011       6.29524994    
 Ni   10.5205898       3.64384007       8.64745045    
 Ni   11.5964699       5.48062992     -0.534600019    
 Ni   11.5997105       5.48199987       2.08639002    
 Ni   11.5953197       5.48166990       4.20371008    
 Ni   11.5970201       5.47638988       6.27373981    
 Ni   11.5920601       5.47385979       8.66191006    
 Ni   12.6442604       7.30016994     -0.536660016    
 Ni   12.6444902       7.30030012       2.08249998    
 Ni   12.6471796       7.30184984       4.20258999    
 Ni   12.6483603       7.30252981       6.27881002    
 Ni   12.6552000       7.30647993       8.69044018    
 O    1.56122005      0.901369989       1.02710998    
 O    1.57525003      0.909470022       3.16873002    
 O    1.58204997      0.913399994       5.24101019    
 O    1.58017004      0.912310004       7.36339998    
 O    1.58061004      0.912570000       9.94330025    
 O    2.63140988       2.74133992       1.02119994    
 O    2.63791990       2.73703003       3.17183995    
 O    2.63507009       2.73991990       5.24439001    
 O    2.63397002       2.73828006       7.34995985    
 O    2.63211989       2.73155999       9.97155952    
 O    3.69331002       4.58267021       1.02406001    
 O    3.69299006       4.56455994       3.16526008    
 O    3.68980002       4.56323004       5.24932003    
 O    3.69780993       4.56557989       7.36818981    
 O    3.68826008       4.56115007       9.93225956    
 O    4.74670982       6.40200996       1.00976002    
 O    4.74709988       6.39096022       3.17596006    
 O    4.74466991       6.38752985       5.23266983    
 O    4.74573994       6.38241005       7.36848021    
 O    4.74557018       6.38114977       9.96963024    
 O    5.79043007       8.21798038       1.03569996    
 O    5.79567003       8.21718979       3.14541006    
 O    5.80226994       8.21481991       5.24244022    
 O    5.81046009       8.21286011       7.37311983    
 O    5.82487011       8.22033024       9.94937992    
 O    3.68976998      0.908200026       1.02119994    
 O    3.68930006      0.915989995       3.17183995    
 O    3.69037008      0.912079990       5.24439001    
 O    3.68840003      0.911949992       7.34995985    
 O    3.68165994      0.913699985       9.97155952    
 O    4.75558996       2.74564004       1.03539002    
 O    4.74675989       2.74054003       3.16252995    
 O    4.74596024       2.74008012       5.25100994    
 O    4.75445986       2.74499011       7.36431980    
 O    4.73205996       2.73205996       9.92541981    
 O    5.80550003       4.56764984       1.02152002    
 O    5.80050993       4.56186008       3.17236996    
 O    5.80237007       4.56115007       5.24584007    
 O    5.80600977       4.55994987       7.39206982    
 O    5.75745010       4.53909016       9.95810986    
 O    6.84701014       6.39517021       1.03268003    
 O    6.85026979       6.39275980       3.15688992    
 O    6.85929012       6.38351011       5.24927998    
 O    6.85688019       6.37922001       7.37350988    
 O    6.86413002       6.40315008       9.93424034    
 O    7.89289999       8.20423985       1.01874995    
 O    7.90108013       8.21417999       3.17355990    
 O    7.90950012       8.21185017       5.24556017    
 O    7.90182018       8.20913982       7.36132002    
 O    7.90136003       8.21494961       9.94489002    
 O    5.81536007      0.907169998       1.02406001    
 O    5.79952002      0.915950000       3.16526008    
 O    5.79677010      0.913850009       5.24932003    
 O    5.80281019      0.919610023       7.36818981    
 O    5.79419994      0.913550019       9.93225956    
 O    6.85844994       2.74388003       1.02152002    
 O    6.85094023       2.74245000       3.17236996    
 O    6.85125017       2.74443007       5.24584007    
 O    6.85203981       2.74816990       7.39206982    
 O    6.80969000       2.71655011       9.95810986    
 O    7.90433979       4.56357002       1.02825999    
 O    7.90562010       4.56431007       3.16340995    
 O    7.90647984       4.56480980       5.25590992    
 O    7.89523983       4.55832005       7.37122011    
 O    7.97549009       4.60465002       9.89676952    
 O    8.95796013       6.38812017       1.01064003    
 O    8.95960045       6.39003992       3.17781997    
 O    8.96063042       6.38660002       5.25177002    
 O    8.94806004       6.38861990       7.34554005    
 O    8.94662952       6.39635992       9.95559025    
 O    10.0220299       8.20448971       1.01812005    
 O    10.0160599       8.21247959       3.16824007    
 O    10.0120802       8.21543026       5.24672985    
 O    10.0153599       8.21840000       7.34741020    
 O    10.0147800       8.22066975       9.96870995    
 O    7.91766024      0.909770012       1.00976002    
 O    7.90828991      0.915629983       3.17596006    
 O    7.90408993      0.915239990       5.23266983    
 O    7.90019989      0.918720007       7.36848021    
 O    7.89902020      0.919210017       9.96963024    
 O    8.96189022       2.73210001       1.03268003    
 O    8.96142960       2.73613000       3.15688992    
 O    8.95792961       2.74856997       5.24927998    
 O    8.95300007       2.74862003       7.37350988    
 O    8.97735977       2.74293995       9.93424034    
 O    10.0112495       4.56376982       1.01064003    
 O    10.0137300       4.56421995       3.17781997    
 O    10.0112696       4.56683016       5.25177002    
 O    10.0067396       4.55494022       7.34554005    
 O    10.0127296       4.54982996       9.95559025    
 O    11.0747499       6.39401007       1.01954997    
 O    11.0689096       6.39063978       3.16530991    
 O    11.0643196       6.38799000       5.24893999    
 O    11.0738297       6.39347982       7.34217978    
 O    11.0771904       6.39542007       9.96520042    
 O    12.1288996       8.20839024       1.01417005    
 O    12.1231298       8.21580029       3.16786003    
 O    12.1175098       8.21778965       5.24487019    
 O    12.1204500       8.21807003       7.37031984    
 O    12.1177998       8.21294022       9.93400002    
 O    10.0121899      0.905669987       1.03569996    
 O    10.0141296      0.910610020       3.14541006    
 O    10.0153704      0.917500019       5.24244022    
 O    10.0177803      0.925580025       7.37311983    
 O    10.0314398      0.934319973       9.94937992    
 O    11.0515203       2.73333001       1.01874995    
 O    11.0642300       2.73544002       3.17355990    
 O    11.0664196       2.74390006       5.24556017    
 O    11.0602303       2.73861003       7.36132002    
 O    11.0650396       2.73530006       9.94489002    
 O    12.1163101       4.57708979       1.01812005    
 O    12.1202402       4.56793022       3.16824007    
 O    12.1208096       4.56300020       5.24672985    
 O    12.1250200       4.56435013       7.34741020    
 O    12.1267004       4.56271982       9.96870995    
 O    13.1731195       6.39974022       1.01417005    
 O    13.1766596       6.39103985       3.16786003    
 O    13.1755695       6.38518000       5.24487019    
 O    13.1772804       6.38757992       7.37031984    
 O    13.1715202       6.38784981       9.93400002    
 O    14.2391996       8.22101021       1.00125003    
 O    14.2358198       8.21905994       3.17623997    
 O    14.2304897       8.21597958       5.22344017    
 O    14.2278204       8.21444035       7.37305021    
 O    14.2267799       8.21383953       9.97587013    
 O    6.67396021       3.85320997       10.6241798    
         259
 Energy:   165.83532900000000     
 X   0.00000000       0.00000000       0.00000000    
 X   10.5415001       0.00000000       0.00000000    
 X   5.27075005       9.12920666       0.00000000    
 X   0.00000000       0.00000000       28.5415001    
 X   15.8122501       9.12920666       0.00000000    
 X   10.5415001       0.00000000       28.5415001    
 X   5.27075005       9.12920666       28.5415001    
 X   15.8122501       9.12920666       28.5415001    
 Ni   1.05200000E-02   6.08000020E-03 -0.617330015    
 Ni   3.77000007E-03   2.16999999E-03   2.07131004    
 Ni   1.07000000E-03   6.20000006E-04   4.18280983    
 Ni   1.27000001E-03   7.30000029E-04   6.28259993    
 Ni  -5.52000012E-03  -3.19000008E-03   8.70728970    
 Ni   1.04525995       1.81965995     -0.631500006    
 Ni   1.04993999       1.81982994       2.07735991    
 Ni   1.05771005       1.82938004       4.19329977    
 Ni   1.05192995       1.83091998       6.28315020    
 Ni   1.03903997       1.83204997       8.72395039    
 Ni   2.11536002       3.65209007     -0.626519978    
 Ni   2.11824012       3.65171003       2.08618999    
 Ni   2.10981011       3.65613008       4.19837999    
 Ni   2.10836005       3.65690994       6.27118015    
 Ni   2.11594009       3.65194988       8.69021988    
 Ni   3.16488004       5.46724987     -0.624409974    
 Ni   3.16447997       5.46803999       2.07692003    