 running on    1 total cores
 distrk:  each k-point on    1 cores,    1 groups
 distr:  one band on    1 cores,    1 groups
 OpenACC runtime initialized ...    1 GPUs detected
 vasp.6.2.1 16May21 (build May 12 2022 08:28:04) complex                         
 POSCAR found type information on POSCAR NiO 
 POSCAR found :  2 types and     251 ions
 scaLAPACK will be used selectively (only on CPU)
 LDA part: xc-table for Pade appr. of Perdew
 POSCAR found type information on POSCAR NiO 
 POSCAR found :  2 types and     251 ions
 POSCAR, INCAR and KPOINTS ok, starting setup
 FFT: planning ...
 WAVECAR not read
 entering main loop
       N       E                     dE             d eps       ncg     rms          rms(c)
DAV:   1     0.311065650731E+05    0.31107E+05   -0.90215E+05  7282   0.156E+03
DAV:   2     0.517467104269E+04   -0.25932E+05   -0.24067E+05  7499   0.568E+02
DAV:   3     0.530965275508E+03   -0.46437E+04   -0.42650E+04  8908   0.280E+02
DAV:   4     0.807173241349E+01   -0.52289E+03   -0.50138E+03 10348   0.985E+01
DAV:   5    -0.908533065440E+01   -0.17157E+02   -0.16997E+02  9604   0.194E+01    0.738E+02
DAV:   6    -0.371032954562E+03   -0.36195E+03   -0.10667E+03 12084   0.224E+02    0.673E+02
DAV:   7    -0.102499571375E+05   -0.98789E+04   -0.51505E+04 11464   0.785E+02    0.346E+03
DAV:   8    -0.115467374100E+05   -0.12968E+04   -0.22474E+04 11740   0.241E+02    0.295E+03
DAV:   9    -0.845833173410E+04    0.30884E+04   -0.31252E+03 10596   0.837E+01    0.232E+03
DAV:  10    -0.353987207436E+04    0.49185E+04   -0.54256E+02 12676   0.942E+01    0.166E+03
DAV:  11    -0.143651990350E+04    0.21034E+04   -0.26031E+03 10972   0.141E+02    0.123E+03
DAV:  12    -0.780257560072E+03    0.65626E+03   -0.15985E+04 11108   0.594E+02    0.221E+03
DAV:  13    -0.202543700565E+04   -0.12452E+04   -0.12954E+04 10708   0.165E+02    0.160E+03
DAV:  14    -0.815948686304E+03    0.12095E+04   -0.12414E+03 10548   0.127E+02    0.894E+02
DAV:  15    -0.300115268563E+04   -0.21852E+04   -0.28594E+03  9876   0.460E+02    0.128E+03
DAV:  16    -0.132720118973E+04    0.16740E+04   -0.31512E+03 10404   0.144E+02    0.877E+02
DAV:  17    -0.452575948326E+03    0.87463E+03   -0.14633E+03 11772   0.139E+02    0.691E+02
DAV:  18     0.273063017033E+03    0.72564E+03   -0.94857E+02 12284   0.101E+02    0.448E+02
DAV:  19     0.412950216084E+03    0.13989E+03   -0.26533E+02 11108   0.792E+01    0.337E+02
DAV:  20     0.403283477144E+03   -0.96667E+01   -0.12222E+02  7828   0.551E+01    0.316E+02
DAV:  21     0.404039403602E+03    0.75593E+00   -0.11904E+02  7604   0.476E+01    0.312E+02
DAV:  22     0.399628707196E+03   -0.44107E+01   -0.30659E+01  7812   0.264E+01    0.328E+02
DAV:  23     0.405516035622E+03    0.58873E+01   -0.17239E+01  7820   0.155E+01    0.320E+02
DAV:  24     0.404297630157E+03   -0.12184E+01   -0.10130E+01  7684   0.175E+01    0.322E+02
DAV:  25     0.408039036615E+03    0.37414E+01   -0.17195E+01 11148   0.227E+01    0.310E+02
DAV:  26     0.406638555259E+03   -0.14005E+01   -0.26566E+01  9420   0.289E+01    0.321E+02
DAV:  27     0.413212051797E+03    0.65735E+01   -0.22650E+01  9628   0.251E+01    0.313E+02
DAV:  28     0.418188247733E+03    0.49762E+01   -0.18603E+01  7860   0.168E+01    0.317E+02
DAV:  29     0.401718463830E+03   -0.16470E+02   -0.23979E+01  9748   0.279E+01    0.301E+02
DAV:  30     0.412540730706E+03    0.10822E+02   -0.11129E+01  7956   0.124E+01    0.297E+02
DAV:  31     0.418324798503E+03    0.57841E+01   -0.47206E+00  7748   0.103E+01    0.293E+02
DAV:  32     0.415153937668E+03   -0.31709E+01   -0.43321E+00  7748   0.122E+01    0.289E+02
DAV:  33     0.419906747084E+03    0.47528E+01   -0.28935E+00  8388   0.702E+00    0.288E+02
DAV:  34     0.418713820842E+03   -0.11929E+01   -0.26041E+00  7900   0.775E+00    0.286E+02
DAV:  35     0.419139543970E+03    0.42572E+00   -0.22697E+00  8316   0.679E+00    0.286E+02
DAV:  36     0.420413892644E+03    0.12743E+01   -0.15832E+00  8284   0.662E+00    0.285E+02
DAV:  37     0.419506168962E+03   -0.90772E+00   -0.14952E+00  9204   0.524E+00    0.287E+02
DAV:  38     0.419168597478E+03   -0.33757E+00   -0.11291E+00  7932   0.308E+00    0.289E+02
DAV:  39     0.418936105465E+03   -0.23249E+00   -0.38161E-01  8364   0.132E+00    0.290E+02
DAV:  40     0.418768047669E+03   -0.16806E+00   -0.62334E-02  8588   0.504E-01    0.290E+02
DAV:  41     0.416960815324E+03   -0.18072E+01   -0.14358E-01  9564   0.225E+00    0.292E+02
DAV:  42     0.415205134869E+03   -0.17557E+01   -0.14559E-01 10060   0.159E+00    0.297E+02
DAV:  43     0.410835081675E+03   -0.43701E+01   -0.54124E-01  9764   0.354E+00    0.308E+02
DAV:  44     0.408490294407E+03   -0.23448E+01   -0.39520E-01  8836   0.205E+00    0.315E+02
DAV:  45     0.408049218247E+03   -0.44108E+00   -0.17926E-01  7508   0.901E-01    0.316E+02
DAV:  46     0.407059942986E+03   -0.98928E+00   -0.27347E-02  8484   0.839E-01    0.319E+02
DAV:  47     0.408438444227E+03    0.13785E+01   -0.27527E-02  8604   0.856E-01    0.316E+02
DAV:  48     0.409263673671E+03    0.82523E+00   -0.12400E-02  8764   0.422E-01    0.315E+02
DAV:  49     0.409140346435E+03   -0.12333E+00   -0.76175E-03  7468   0.214E-01    0.315E+02
DAV:  50     0.408444626327E+03   -0.69572E+00   -0.55139E-03 12436   0.517E-01    0.316E+02
DAV:  51     0.171227439271E+03   -0.23722E+03   -0.18784E+02 13028   0.129E+02    0.272E+02
DAV:  52     0.319544805898E+03    0.14832E+03   -0.11286E+02  9652   0.484E+01    0.150E+02
DAV:  53     0.371236682691E+03    0.51692E+02   -0.47485E+01  8316   0.407E+01    0.125E+02
DAV:  54     0.385680906293E+03    0.14444E+02   -0.48236E+01  8436   0.483E+01    0.134E+02
DAV:  55     0.413267190087E+03    0.27586E+02   -0.35549E+01  8996   0.317E+01    0.117E+02
DAV:  56     0.399329961030E+03   -0.13937E+02   -0.95374E+01 12940   0.776E+01    0.166E+02
DAV:  57     0.432956740228E+03    0.33627E+02   -0.68679E+01  9964   0.339E+01    0.133E+02
DAV:  58     0.421980977435E+03   -0.10976E+02   -0.32863E+01  7868   0.323E+01    0.145E+02
DAV:  59     0.430392479160E+03    0.84115E+01   -0.19957E+01  7572   0.252E+01    0.136E+02
DAV:  60     0.440890354762E+03    0.10498E+02   -0.13694E+01  7548   0.222E+01
 -----------------------------------------------------------------------------
|                                                                             |
|           W    W    AA    RRRRR   N    N  II  N    N   GGGG   !!!           |
|           W    W   A  A   R    R  NN   N  II  NN   N  G    G  !!!           |
|           W    W  A    A  R    R  N N  N  II  N N  N  G       !!!           |
|           W WW W  AAAAAA  RRRRR   N  N N  II  N  N N  G  GGG   !            |
|           WW  WW  A    A  R   R   N   NN  II  N   NN  G    G                |
|           W    W  A    A  R    R  N    N  II  N    N   GGGG   !!!           |
|                                                                             |
|     The electronic self-consistency was not achieved in the given           |
|     number of steps (NELM). The forces and other quantities evaluated       |
|     might not be reliable so examine the results carefully. If you find     |
|     spurious results, we suggest increasing NELM, if you were close to      |
|     convergence or switching to a different ALGO or adjusting the           |
|     density mixing parameters otherwise.                                    |
|                                                                             |
 -----------------------------------------------------------------------------

   1 F= 0.32514670E+03 E0= 0.32522652E+03  d E =0.325147E+03
 curvature:   0.00 expect dE= 0.000E+00 dE for cont linesearch  0.000E+00
 trial: gam= 0.00000 g(F)=  0.715E+03 g(S)=  0.000E+00 ort = 0.000E+00 (trialstep = 0.100E+01)
 search vector abs. value=  0.715E+03
 bond charge predicted
       N       E                     dE             d eps       ncg     rms          rms(c)
DAV:   1     0.195350698261E+04    0.15231E+04   -0.94586E+04  9664   0.538E+02    0.112E+03
DAV:   2    -0.129194042272E+05   -0.14873E+05   -0.92793E+04 12475   0.108E+03    0.493E+03
DAV:   3    -0.128321807074E+05    0.87224E+02   -0.44976E+04 11996   0.381E+02    0.247E+03
DAV:   4    -0.371081170704E+05   -0.24276E+05   -0.91147E+05 13066   0.140E+03    0.905E+03
DAV:   5    -0.365521701492E+05    0.55595E+03   -0.11023E+05 11317   0.617E+02    0.418E+03
DAV:   6    -0.131791870469E+04    0.35234E+05   -0.44539E+04  9512   0.462E+02    0.161E+03
DAV:   7    -0.263542036840E+04   -0.13175E+04   -0.19796E+04  9220   0.197E+02    0.112E+03
DAV:   8    -0.765213876990E+03    0.18702E+04   -0.80708E+03 10940   0.203E+02    0.884E+02
DAV:   9    -0.746195016070E+03    0.19019E+02   -0.46708E+03  8396   0.377E+02    0.840E+02
DAV:  10    -0.237416681251E+04   -0.16280E+04   -0.37878E+03  8020   0.323E+02    0.610E+02
DAV:  11    -0.289825412299E+03    0.20843E+04   -0.13587E+03  8388   0.182E+02    0.300E+02
DAV:  12    -0.300009033029E+03   -0.10184E+02   -0.10286E+03  8420   0.171E+02    0.288E+02
DAV:  13    -0.121990889360E+03    0.17802E+03   -0.48140E+02  7732   0.132E+02    0.271E+02
DAV:  14    -0.956187432786E+02    0.26372E+02   -0.31124E+02  8068   0.824E+01    0.250E+02
DAV:  15    -0.701795339743E+02    0.25439E+02   -0.14142E+02  8108   0.404E+01    0.248E+02
DAV:  16    -0.728461059546E+02   -0.26666E+01   -0.42298E+01  7940   0.252E+01    0.242E+02
DAV:  17    -0.637645936483E+02    0.90815E+01   -0.18228E+01  7732   0.158E+01    0.243E+02
DAV:  18    -0.601120989202E+02    0.36525E+01   -0.12612E+01  8772   0.207E+01    0.244E+02
DAV:  19    -0.331079912041E+02    0.27004E+02   -0.27498E+01  8748   0.345E+01    0.239E+02
DAV:  20    -0.393692348385E+01    0.29171E+02   -0.57610E+01  8492   0.437E+01    0.236E+02
DAV:  21     0.243384144865E+02    0.28275E+02   -0.70695E+01  8628   0.404E+01    0.240E+02
DAV:  22     0.355369745684E+02    0.11199E+02   -0.53046E+01  8124   0.350E+01    0.242E+02
DAV:  23     0.382985327742E+02    0.27616E+01   -0.41386E+01  7940   0.289E+01    0.241E+02
DAV:  24     0.451894696662E+02    0.68909E+01   -0.24585E+01  8108   0.210E+01    0.242E+02
DAV:  25     0.512872796515E+02    0.60978E+01   -0.20904E+01  8700   0.170E+01    0.241E+02
DAV:  26     0.515318442541E+02    0.24456E+00   -0.13381E+01  8044   0.124E+01    0.241E+02
DAV:  27     0.533126765327E+02    0.17808E+01   -0.76654E+00  7972   0.104E+01    0.242E+02
DAV:  28     0.559039671933E+02    0.25913E+01   -0.73416E+00  7812   0.916E+00    0.242E+02
DAV:  29     0.588671117635E+02    0.29631E+01   -0.48405E+00  7812   0.101E+01    0.242E+02
DAV:  30     0.619529136433E+02    0.30858E+01   -0.66522E+00  7860   0.114E+01    0.242E+02
DAV:  31     0.605675525870E+02   -0.13854E+01   -0.98485E+00  8396   0.137E+01    0.244E+02
DAV:  32     0.683488380499E+02    0.77813E+01   -0.11092E+01  8108   0.116E+01    0.244E+02
DAV:  33     0.681685544271E+02   -0.18028E+00   -0.52404E+00  8044   0.106E+01    0.245E+02
DAV:  34     0.701519432189E+02    0.19834E+01   -0.63648E+00  7884   0.800E+00    0.247E+02
DAV:  35     0.696898089908E+02   -0.46213E+00   -0.25470E+00  7916   0.689E+00    0.248E+02
DAV:  36     0.702242244631E+02    0.53442E+00   -0.19699E+00  8268   0.513E+00    0.249E+02
DAV:  37     0.699864541157E+02   -0.23777E+00   -0.15136E+00  7956   0.597E+00    0.251E+02
DAV:  38     0.705905703614E+02    0.60412E+00   -0.20636E+00  8388   0.552E+00    0.253E+02
DAV:  39     0.723043027981E+02    0.17137E+01   -0.19454E+00  7972   0.629E+00    0.257E+02
DAV:  40     0.719519609883E+02   -0.35234E+00   -0.10939E+00  8132   0.485E+00    0.259E+02
DAV:  41     0.717178824623E+02   -0.23408E+00   -0.46417E-01  8148   0.308E+00    0.260E+02
DAV:  42     0.714497755086E+02   -0.26811E+00   -0.45099E-01  8004   0.267E+00    0.262E+02
DAV:  43     0.715097056525E+02    0.59930E-01   -0.41931E-01  8228   0.232E+00    0.263E+02
DAV:  44     0.715474762004E+02    0.37771E-01   -0.33462E-01  7900   0.220E+00    0.267E+02
DAV:  45     0.712502153157E+02   -0.29726E+00   -0.22217E-01  7876   0.163E+00    0.270E+02
DAV:  46     0.709108563731E+02   -0.33936E+00   -0.13987E-01  8188   0.132E+00    0.272E+02
DAV:  47    -0.498536768137E+01   -0.75896E+02   -0.60434E+01 12020   0.598E+01    0.216E+02
DAV:  48     0.397165445527E+02    0.44702E+02   -0.68797E+01  9700   0.485E+01    0.191E+02
DAV:  49     0.477248655618E+02    0.80083E+01   -0.44047E+01  8460   0.464E+01    0.175E+02
DAV:  50     0.548783853739E+02    0.71535E+01   -0.21286E+01  7996   0.285E+01    0.173E+02
DAV:  51     0.400185721661E+02   -0.14860E+02   -0.29184E+01  7764   0.362E+01    0.168E+02
DAV:  52    -0.310415145052E+02   -0.71060E+02   -0.12074E+02  9996   0.807E+01    0.198E+02
DAV:  53    -0.762778119924E+02   -0.45236E+02   -0.11547E+02  8524   0.739E+01    0.202E+02
DAV:  54    -0.269093316770E+02    0.49368E+02   -0.78867E+01  7604   0.545E+01    0.163E+02
DAV:  55    -0.437564783590E+02   -0.16847E+02   -0.58520E+01  8100   0.508E+01    0.165E+02
DAV:  56    -0.597166121057E+02   -0.15960E+02   -0.48883E+01  7820   0.404E+01    0.156E+02
DAV:  57    -0.115433811712E+03   -0.55717E+02   -0.16275E+02  9092   0.876E+01    0.190E+02
DAV:  58    -0.901273745657E+02    0.25306E+02   -0.73888E+01  7924   0.569E+01    0.158E+02
DAV:  59    -0.819353145724E+02    0.81921E+01   -0.45078E+01  7732   0.365E+01    0.154E+02
DAV:  60    -0.703803016841E+02    0.11555E+02   -0.19382E+01  7700   0.235E+01
 -----------------------------------------------------------------------------
|                                                                             |
|           W    W    AA    RRRRR   N    N  II  N    N   GGGG   !!!           |
|           W    W   A  A   R    R  NN   N  II  NN   N  G    G  !!!           |
|           W    W  A    A  R    R  N N  N  II  N N  N  G       !!!           |
|           W WW W  AAAAAA  RRRRR   N  N N  II  N  N N  G  GGG   !            |
|           WW  WW  A    A  R   R   N   NN  II  N   NN  G    G                |
|           W    W  A    A  R    R  N    N  II  N    N   GGGG   !!!           |
|                                                                             |
|     The electronic self-consistency was not achieved in the given           |
|     number of steps (NELM). The forces and other quantities evaluated       |
|     might not be reliable so examine the results carefully. If you find     |
|     spurious results, we suggest increasing NELM, if you were close to      |
|     convergence or switching to a different ALGO or adjusting the           |
|     density mixing parameters otherwise.                                    |
|                                                                             |
 -----------------------------------------------------------------------------

   2 F= -.18063091E+03 E0= -.18054056E+03  d E =-.505778E+03
 trial-energy change: -505.777610  1 .order -442.086440 -715.410607 -168.762273
 step:   1.1698(harm=  1.3087)  dis= 0.57148  next Energy=  -195.273588 (dE=-0.520E+03)
 bond charge predicted
       N       E                     dE             d eps       ncg     rms          rms(c)
DAV:   1    -0.751162045016E+02    0.68191E+01   -0.37686E+03  7257   0.784E+01    0.140E+02
DAV:   2    -0.211998271518E+04   -0.20449E+04   -0.14742E+03  8060   0.431E+02    0.721E+02
DAV:   3    -0.877535887835E+03    0.12424E+04   -0.79777E+02  8441   0.235E+02    0.422E+02
DAV:   4    -0.525175994936E+03    0.35236E+03   -0.29955E+02  9388   0.178E+02    0.333E+02
DAV:   5    -0.484225503951E+02    0.47675E+03   -0.23575E+02  8820   0.118E+02    0.165E+02
DAV:   6    -0.127796212006E+02    0.35643E+02   -0.18895E+02  7812   0.730E+01    0.135E+02
DAV:   7     0.223547259774E+02    0.35134E+02   -0.12834E+02  7612   0.510E+01    0.121E+02
DAV:   8     0.324662058856E+02    0.10111E+02   -0.49837E+01  7980   0.247E+01    0.115E+02
DAV:   9     0.308923648014E+02   -0.15738E+01   -0.19781E+01  8132   0.127E+01    0.113E+02
DAV:  10     0.211232235781E+02   -0.97691E+01   -0.19488E+01  7940   0.214E+01    0.117E+02
DAV:  11     0.239013987733E+02    0.27782E+01   -0.11202E+01  8212   0.167E+01    0.112E+02
DAV:  12     0.225982937948E+02   -0.13031E+01   -0.24483E+01  7972   0.321E+01    0.113E+02
DAV:  13     0.269029071345E+02    0.43046E+01   -0.39479E+01  8300   0.300E+01    0.103E+02
DAV:  14     0.265093640671E+02   -0.39354E+00   -0.25646E+01  8076   0.326E+01    0.941E+01
DAV:  15     0.347442266303E+02    0.82349E+01   -0.29225E+01  7988   0.354E+01    0.801E+01
DAV:  16     0.295164061561E+02   -0.52278E+01   -0.22098E+01  8364   0.249E+01    0.819E+01
DAV:  17     0.338074155287E+02    0.42910E+01   -0.13829E+01  8028   0.213E+01    0.766E+01
DAV:  18     0.336310791518E+02   -0.17634E+00   -0.11663E+01  7884   0.202E+01    0.755E+01
DAV:  19     0.367862765999E+02    0.31552E+01   -0.70044E+00  7908   0.116E+01    0.699E+01
DAV:  20     0.312837040904E+02   -0.55026E+01   -0.10562E+01  8004   0.187E+01    0.817E+01
DAV:  21     0.405563327856E+02    0.92726E+01   -0.65546E+00  7996   0.113E+01    0.658E+01
DAV:  22     0.425868613170E+02    0.20305E+01   -0.52251E+00  8124   0.109E+01    0.644E+01
DAV:  23     0.357140586446E+02   -0.68728E+01   -0.86350E+00  9556   0.180E+01    0.805E+01
DAV:  24     0.370833353940E+02    0.13693E+01   -0.34884E+00  9332   0.287E+00    0.772E+01
DAV:  25     0.370630072495E+02   -0.20328E-01   -0.17416E-01  8092   0.112E+00    0.783E+01
DAV:  26     0.367462959383E+02   -0.31671E+00   -0.82993E-02 11716   0.855E-01    0.792E+01
DAV:  27     0.368810389154E+02    0.13474E+00   -0.44440E-02  9220   0.773E-01    0.790E+01
DAV:  28     0.338545709765E+02   -0.30265E+01   -0.33570E+00 10012   0.892E+00    0.836E+01
DAV:  29     0.328015456861E+02   -0.10530E+01   -0.52147E-01  9236   0.140E+00    0.846E+01
DAV:  30     0.348570103445E+02    0.20555E+01   -0.34709E-01 10012   0.255E+00    0.816E+01
DAV:  31     0.393383616242E+02    0.44814E+01   -0.29648E+00 10036   0.742E+00    0.734E+01
DAV:  32     0.423907458242E+02    0.30524E+01   -0.37322E+00  9956   0.973E+00    0.671E+01
DAV:  33     0.451850072308E+02    0.27943E+01   -0.66481E+00  9740   0.873E+00    0.610E+01
DAV:  34     0.467433465738E+02    0.15583E+01   -0.32532E+00  8892   0.810E+00    0.587E+01
DAV:  35     0.469670538679E+02    0.22371E+00   -0.18970E+00  7908   0.588E+00    0.593E+01
DAV:  36     0.485395241827E+02    0.15725E+01   -0.14221E+00  7612   0.427E+00    0.549E+01
DAV:  37     0.486465327251E+02    0.10701E+00   -0.73304E-01  8812   0.382E+00    0.541E+01
DAV:  38     0.492651132271E+02    0.61858E+00   -0.30512E-01  7572   0.151E+00    0.521E+01
DAV:  39     0.501762718782E+02    0.91116E+00   -0.26310E-01  8684   0.198E+00    0.494E+01
DAV:  40     0.507495344081E+02    0.57326E+00   -0.23947E-01  8284   0.210E+00    0.480E+01
DAV:  41     0.515063529033E+02    0.75682E+00   -0.29303E-01 10460   0.260E+00    0.456E+01
DAV:  42     0.535105352160E+02    0.20042E+01   -0.81729E-01  9108   0.360E+00    0.379E+01
DAV:  43     0.539237846672E+02    0.41325E+00   -0.44865E-01  7660   0.253E+00    0.354E+01
DAV:  44     0.542138182260E+02    0.29003E+00   -0.25529E-01  7700   0.226E+00    0.336E+01
DAV:  45     0.543767947103E+02    0.16298E+00   -0.13550E-01  9292   0.887E-01    0.325E+01
DAV:  46     0.545478321058E+02    0.17104E+00   -0.52840E-02  7620   0.765E-01    0.313E+01
DAV:  47     0.537883887356E+02   -0.75944E+00   -0.52772E+00 12124   0.114E+01    0.232E+01
DAV:  48     0.539253426720E+02    0.13695E+00   -0.42179E+00  9004   0.929E+00    0.221E+01
DAV:  49     0.550175451059E+02    0.10922E+01   -0.12042E+00  8092   0.643E+00    0.167E+01
DAV:  50     0.554229489453E+02    0.40540E+00   -0.54649E-01  8300   0.350E+00    0.153E+01
DAV:  51     0.556671572700E+02    0.24421E+00   -0.48249E-01  8156   0.378E+00    0.146E+01
DAV:  52     0.554804328205E+02   -0.18672E+00   -0.16712E+00  8516   0.667E+00    0.197E+01
DAV:  53     0.561087456634E+02    0.62831E+00   -0.20607E+00  7836   0.593E+00    0.122E+01
DAV:  54     0.562457108018E+02    0.13697E+00   -0.47683E-01  7628   0.345E+00    0.113E+01
DAV:  55     0.563478190675E+02    0.10211E+00   -0.24801E-01  8004   0.278E+00    0.101E+01
DAV:  56     0.563386350647E+02   -0.91840E-02   -0.16349E-01  8476   0.210E+00    0.100E+01
DAV:  57     0.563289298653E+02   -0.97052E-02   -0.22984E-01  7924   0.301E+00    0.103E+01
DAV:  58     0.563907210040E+02    0.61791E-01   -0.95590E-02  7908   0.200E+00    0.898E+00
DAV:  59     0.564489026652E+02    0.58182E-01   -0.75163E-02  7884   0.132E+00    0.738E+00
DAV:  60     0.564731690665E+02    0.24266E-01   -0.81810E-02  8068   0.146E+00
 -----------------------------------------------------------------------------
|                                                                             |
|           W    W    AA    RRRRR   N    N  II  N    N   GGGG   !!!           |
|           W    W   A  A   R    R  NN   N  II  NN   N  G    G  !!!           |
|           W    W  A    A  R    R  N N  N  II  N N  N  G       !!!           |
|           W WW W  AAAAAA  RRRRR   N  N N  II  N  N N  G  GGG   !            |
|           WW  WW  A    A  R   R   N   NN  II  N   NN  G    G                |
|           W    W  A    A  R    R  N    N  II  N    N   GGGG   !!!           |
|                                                                             |
|     The electronic self-consistency was not achieved in the given           |
|     number of steps (NELM). The forces and other quantities evaluated       |
|     might not be reliable so examine the results carefully. If you find     |
|     spurious results, we suggest increasing NELM, if you were close to      |
|     convergence or switching to a different ALGO or adjusting the           |
|     density mixing parameters otherwise.                                    |
|                                                                             |
 -----------------------------------------------------------------------------

   3 F= -.52888993E+02 E0= -.52774728E+02  d E =-.378036E+03
 curvature:  -0.52 expect dE=-0.203E+03 dE for cont linesearch -0.119E+02
 ZBRENT: increasing intervall
 opt :   1.5095  next Energy=   -82.306440 (dE=-0.407E+03)
 bond charge predicted
       N       E                     dE             d eps       ncg     rms          rms(c)
DAV:   1     0.118406813729E+03    0.61958E+02   -0.16677E+04  7266   0.155E+02    0.116E+02
DAV:   2    -0.154078157562E+03   -0.27248E+03   -0.10492E+03  8180   0.103E+02    0.154E+02
DAV:   3    -0.110473659666E+04   -0.95066E+03   -0.59725E+02  8364   0.251E+02    0.526E+02
DAV:   4    -0.232690253259E+03    0.87205E+03   -0.13924E+02  9142   0.648E+01    0.307E+02
DAV:   5    -0.542350877050E+03   -0.30966E+03   -0.11253E+02  8220   0.686E+01    0.338E+02
DAV:   6    -0.353117433018E+02    0.50704E+03   -0.41527E+01  9156   0.871E+01    0.104E+02
DAV:   7    -0.142722614505E+02    0.21039E+02   -0.79945E+01  9636   0.661E+01    0.875E+01
DAV:   8    -0.148289208333E+02   -0.55666E+00   -0.53146E+01  8628   0.524E+01    0.908E+01
DAV:   9     0.117448487440E+02    0.26574E+02   -0.28453E+01  7892   0.256E+01    0.603E+01
DAV:  10     0.123382349280E+02    0.59339E+00   -0.16791E+01  7716   0.211E+01    0.620E+01
DAV:  11     0.153431104184E+02    0.30049E+01   -0.76878E+00  7956   0.956E+00    0.538E+01
DAV:  12     0.162335280259E+02    0.89042E+00   -0.37241E+00  7748   0.910E+00    0.496E+01
DAV:  13     0.191173452851E+02    0.28838E+01   -0.30456E+00  8212   0.107E+01    0.416E+01
DAV:  14     0.174978578570E+02   -0.16195E+01   -0.39513E+00  8996   0.109E+01    0.400E+01
DAV:  15     0.185999390716E+02    0.11021E+01   -0.39806E+00  8540   0.105E+01    0.334E+01
DAV:  16     0.189122599540E+02    0.31232E+00   -0.44021E+00  8676   0.960E+00    0.311E+01
DAV:  17     0.190159254977E+02    0.10367E+00   -0.48318E+00  8644   0.115E+01    0.269E+01
DAV:  18     0.200919142868E+02    0.10760E+01   -0.24190E+00  9108   0.950E+00    0.223E+01
DAV:  19     0.208772540092E+02    0.78534E+00   -0.10493E+00  8012   0.418E+00    0.178E+01
DAV:  20     0.209525760259E+02    0.75322E-01   -0.40284E-01  8212   0.146E+00    0.169E+01
DAV:  21     0.209606178938E+02    0.80419E-02   -0.89400E-02  9124   0.515E-01    0.168E+01
DAV:  22     0.210345328883E+02    0.73915E-01   -0.19623E-02  9100   0.568E-01    0.163E+01
DAV:  23     0.209318198725E+02   -0.10271E+00   -0.19133E-01  9764   0.245E+00    0.166E+01
DAV:  24     0.211562827779E+02    0.22446E+00   -0.29080E-01  9500   0.262E+00    0.148E+01
DAV:  25     0.214507952686E+02    0.29451E+00   -0.26221E-01  9900   0.233E+00    0.126E+01
DAV:  26     0.211070438270E+02   -0.34375E+00   -0.60601E-01  8820   0.399E+00    0.156E+01
DAV:  27     0.214351468612E+02    0.32810E+00   -0.74305E-01  8740   0.410E+00    0.115E+01
DAV:  28     0.214884193358E+02    0.53272E-01   -0.30735E-01  8028   0.261E+00    0.107E+01
DAV:  29     0.215058951639E+02    0.17476E-01   -0.13744E-01  7860   0.144E+00    0.103E+01
DAV:  30     0.215061537479E+02    0.25858E-03   -0.53880E-02  7652   0.895E-01    0.101E+01
DAV:  31     0.215516056181E+02    0.45452E-01   -0.37117E-02  7932   0.891E-01    0.949E+00
DAV:  32     0.215931293499E+02    0.41524E-01   -0.31870E-02  8220   0.790E-01    0.883E+00
DAV:  33     0.216308036610E+02    0.37674E-01   -0.56231E-02  8580   0.954E-01    0.810E+00
DAV:  34     0.216568833408E+02    0.26080E-01   -0.47539E-02  7852   0.883E-01    0.764E+00
DAV:  35     0.216799877370E+02    0.23104E-01   -0.31181E-02  8068   0.651E-01    0.716E+00
DAV:  36     0.217036478217E+02    0.23660E-01   -0.15715E-02  8076   0.524E-01    0.670E+00
DAV:  37     0.217443272518E+02    0.40679E-01   -0.22349E-02  9388   0.727E-01    0.574E+00
DAV:  38     0.217665488869E+02    0.22222E-01   -0.15767E-02  8860   0.458E-01    0.523E+00
DAV:  39     0.217812056984E+02    0.14657E-01   -0.12539E-02  9196   0.459E-01    0.479E+00
DAV:  40     0.218036146699E+02    0.22409E-01   -0.12620E-02  8908   0.602E-01    0.405E+00
DAV:  41     0.218214829201E+02    0.17868E-01   -0.97466E-03 10212   0.454E-01    0.344E+00
DAV:  42     0.218317554481E+02    0.10273E-01   -0.83401E-03 10020   0.455E-01    0.289E+00
DAV:  43     0.218357189056E+02    0.39635E-02   -0.78681E-03  8524   0.395E-01    0.259E+00
DAV:  44     0.218362260251E+02    0.50712E-03   -0.62107E-03  7964   0.325E-01    0.246E+00
DAV:  45     0.218367002197E+02    0.47419E-03   -0.29941E-03  7796   0.213E-01    0.239E+00
DAV:  46     0.218373220381E+02    0.62182E-03   -0.21063E-03  8260   0.226E-01    0.229E+00
DAV:  47     0.217217817064E+02   -0.11554E+00   -0.26656E-01  9852   0.212E+00    0.607E+00
DAV:  48     0.218047030591E+02    0.82921E-01   -0.18611E-01 11068   0.142E+00    0.335E+00
DAV:  49     0.218162903604E+02    0.11587E-01   -0.28629E-02  9332   0.830E-01    0.273E+00
DAV:  50     0.218087484883E+02   -0.75419E-02   -0.22867E-02  9260   0.868E-01    0.287E+00
DAV:  51     0.218037671857E+02   -0.49813E-02   -0.20329E-02  9236   0.772E-01    0.295E+00
DAV:  52     0.218243922857E+02    0.20625E-01   -0.88352E-02  8910   0.118E+00    0.270E+00
DAV:  53     0.218296934711E+02    0.53012E-02   -0.16694E-02  8732   0.788E-01    0.224E+00
DAV:  54     0.218356461246E+02    0.59527E-02   -0.14960E-02  8516   0.716E-01    0.177E+00
DAV:  55     0.218390908963E+02    0.34448E-02   -0.14696E-02  8756   0.683E-01    0.155E+00
DAV:  56     0.218422416402E+02    0.31507E-02   -0.14610E-02  7940   0.665E-01    0.127E+00
DAV:  57     0.218438090440E+02    0.15674E-02   -0.13975E-02  7796   0.609E-01    0.105E+00
DAV:  58     0.218453022293E+02    0.14932E-02   -0.11481E-02  7772   0.439E-01    0.832E-01
DAV:  59     0.218462604750E+02    0.95825E-03   -0.38382E-03  7796   0.287E-01    0.583E-01
DAV:  60     0.218469951777E+02    0.73470E-03   -0.27166E-03  7756   0.248E-01
 -----------------------------------------------------------------------------
|                                                                             |
|           W    W    AA    RRRRR   N    N  II  N    N   GGGG   !!!           |
|           W    W   A  A   R    R  NN   N  II  NN   N  G    G  !!!           |
|           W    W  A    A  R    R  N N  N  II  N N  N  G       !!!           |
|           W WW W  AAAAAA  RRRRR   N  N N  II  N  N N  G  GGG   !            |
|           WW  WW  A    A  R   R   N   NN  II  N   NN  G    G                |
|           W    W  A    A  R    R  N    N  II  N    N   GGGG   !!!           |
|                                                                             |
|     The electronic self-consistency was not achieved in the given           |
|     number of steps (NELM). The forces and other quantities evaluated       |
|     might not be reliable so examine the results carefully. If you find     |
|     spurious results, we suggest increasing NELM, if you were close to      |
|     convergence or switching to a different ALGO or adjusting the           |
|     density mixing parameters otherwise.                                    |
|                                                                             |
 -----------------------------------------------------------------------------

   4 F= -.85799787E+02 E0= -.85671027E+02  d E =-.410946E+03
 curvature:  -1.29 expect dE=-0.565E+03 dE for cont linesearch -0.913E+01
 trial: gam= 0.51200 g(F)=  0.437E+03 g(S)=  0.000E+00 ort = 0.711E+02 (trialstep = 0.110E+01)
 search vector abs. value=  0.698E+03
 bond charge predicted
       N       E                     dE             d eps       ncg     rms          rms(c)
DAV:   1     0.170666990230E+04    0.16848E+04   -0.13176E+05  7594   0.644E+02    0.824E+02
DAV:   2    -0.620167242409E+04   -0.79083E+04   -0.31362E+04  9380   0.749E+02    0.236E+03
DAV:   3    -0.667027067107E+04   -0.46860E+03   -0.26164E+04 11662   0.272E+02    0.113E+03
DAV:   4    -0.263870834019E+05   -0.19717E+05   -0.39624E+05 13106   0.950E+02    0.744E+03
DAV:   5    -0.250917985314E+05    0.12953E+04   -0.59751E+04 11323   0.436E+02    0.304E+03
DAV:   6    -0.400809157989E+04    0.21084E+05   -0.14364E+04  9682   0.307E+02    0.107E+03
DAV:   7    -0.683511220761E+03    0.33246E+04   -0.33095E+04 10076   0.170E+02    0.132E+03
DAV:   8    -0.262653604957E+03    0.42086E+03   -0.14829E+04  8284   0.377E+02    0.812E+02
DAV:   9    -0.641815163769E+03   -0.37916E+03   -0.63280E+03 10044   0.159E+02    0.329E+02
DAV:  10    -0.751552503408E+03   -0.10974E+03   -0.67296E+02  7836   0.206E+02    0.318E+02
DAV:  11    -0.778943215725E+03   -0.27391E+02   -0.57157E+02  8740   0.134E+02    0.326E+02
DAV:  12    -0.455565536251E+03    0.32338E+03   -0.21463E+02  7964   0.105E+02    0.282E+02
DAV:  13    -0.384923637644E+03    0.70642E+02   -0.17547E+02  8540   0.390E+01    0.271E+02
DAV:  14    -0.395927765828E+03   -0.11004E+02   -0.68719E+01  7692   0.341E+01    0.257E+02
DAV:  15    -0.381650634159E+03    0.14277E+02   -0.26745E+01  7596   0.221E+01    0.253E+02
DAV:  16    -0.384179995683E+03   -0.25294E+01   -0.28913E+01 10444   0.281E+01    0.249E+02
DAV:  17    -0.354479579510E+03    0.29700E+02   -0.35908E+01 10884   0.320E+01    0.217E+02
DAV:  18    -0.352060129965E+03    0.24194E+01   -0.34439E+01  8908   0.398E+01    0.201E+02
DAV:  19    -0.353399773460E+03   -0.13396E+01   -0.47209E+01 10964   0.349E+01    0.168E+02
DAV:  20    -0.354202964087E+03   -0.80319E+00   -0.46178E+01 10396   0.416E+01    0.145E+02
DAV:  21    -0.350339657179E+03    0.38633E+01   -0.25936E+01  9476   0.227E+01    0.132E+02
DAV:  22    -0.349837557881E+03    0.50210E+00   -0.10666E+01  8756   0.857E+00    0.135E+02
DAV:  23    -0.343171968995E+03    0.66656E+01   -0.57760E+00  8564   0.113E+01    0.126E+02
DAV:  24    -0.341082752905E+03    0.20892E+01   -0.55829E+00  8196   0.906E+00    0.127E+02
DAV:  25    -0.340388303283E+03    0.69445E+00   -0.50008E+00  9012   0.146E+01    0.121E+02
DAV:  26    -0.338624383314E+03    0.17639E+01   -0.70831E+00  8284   0.150E+01    0.111E+02
DAV:  27    -0.329779193817E+03    0.88452E+01   -0.13245E+01  8484   0.184E+01    0.873E+01
DAV:  28    -0.327389854546E+03    0.23893E+01   -0.84593E+00  7948   0.112E+01    0.838E+01
DAV:  29    -0.326549721535E+03    0.84013E+00   -0.65929E+00  8340   0.119E+01    0.794E+01
DAV:  30    -0.322975962212E+03    0.35738E+01   -0.42905E+00  8212   0.923E+00    0.698E+01
DAV:  31    -0.321456672883E+03    0.15193E+01   -0.31696E+00  7860   0.667E+00    0.675E+01
DAV:  32    -0.321728335064E+03   -0.27166E+00   -0.17243E+00  8580   0.683E+00    0.684E+01
DAV:  33    -0.321101091175E+03    0.62724E+00   -0.13623E+00  8748   0.642E+00    0.651E+01
DAV:  34    -0.319626373817E+03    0.14747E+01   -0.19147E+00  8676   0.759E+00    0.609E+01
DAV:  35    -0.317396515924E+03    0.22299E+01   -0.25748E+00  9508   0.673E+00    0.579E+01
DAV:  36    -0.316100712593E+03    0.12958E+01   -0.19014E+00  8844   0.663E+00    0.527E+01
DAV:  37    -0.315067663362E+03    0.10330E+01   -0.14925E+00  8284   0.480E+00    0.491E+01
DAV:  38    -0.314922046726E+03    0.14562E+00   -0.96781E-01  7716   0.294E+00    0.492E+01
DAV:  39    -0.314816685775E+03    0.10536E+00   -0.49475E-01  8340   0.361E+00    0.466E+01
DAV:  40    -0.314503600121E+03    0.31309E+00   -0.33407E-01  7732   0.286E+00    0.458E+01
DAV:  41    -0.314405095448E+03    0.98505E-01   -0.34902E-01  8956   0.329E+00    0.444E+01
DAV:  42    -0.313969167293E+03    0.43593E+00   -0.52485E-01  9180   0.405E+00    0.417E+01
DAV:  43    -0.313551243902E+03    0.41792E+00   -0.48209E-01  9188   0.338E+00    0.403E+01
DAV:  44    -0.313393713728E+03    0.15753E+00   -0.35710E-01  8044   0.222E+00    0.399E+01
DAV:  45    -0.313341505838E+03    0.52208E-01   -0.16644E-01  8052   0.167E+00    0.390E+01
DAV:  46    -0.313307949912E+03    0.33556E-01   -0.96065E-02  7700   0.893E-01    0.388E+01
DAV:  47    -0.313958011267E+03   -0.65006E+00   -0.13169E+00 12900   0.490E+00    0.395E+01
DAV:  48    -0.315904843025E+03   -0.19468E+01   -0.39839E+00 10004   0.919E+00    0.402E+01
DAV:  49    -0.314671937434E+03    0.12329E+01   -0.86633E-01  9500   0.363E+00    0.379E+01
DAV:  50    -0.314575779785E+03    0.96158E-01   -0.61323E-01  8860   0.344E+00    0.379E+01
DAV:  51    -0.314501026965E+03    0.74753E-01   -0.62050E-01  9116   0.338E+00    0.376E+01
DAV:  52    -0.339453726820E+03   -0.24953E+02   -0.19001E+01 11492   0.321E+01    0.770E+01
DAV:  53    -0.326179116711E+03    0.13275E+02   -0.13152E+01 10404   0.240E+01    0.513E+01
DAV:  54    -0.326125915337E+03    0.53201E-01   -0.12967E+01  9140   0.267E+01    0.521E+01
DAV:  55    -0.321459031613E+03    0.46669E+01   -0.88556E+00  8948   0.218E+01    0.426E+01
DAV:  56    -0.318530901556E+03    0.29281E+01   -0.47301E+00  8660   0.148E+01    0.337E+01
DAV:  57    -0.325476104509E+03   -0.69452E+01   -0.16207E+01  9268   0.272E+01    0.511E+01
DAV:  58    -0.319117943771E+03    0.63582E+01   -0.84885E+00  8372   0.181E+01    0.362E+01
DAV:  59    -0.318495838728E+03    0.62211E+00   -0.28266E+00  8396   0.882E+00    0.327E+01
DAV:  60    -0.317427802860E+03    0.10680E+01   -0.31582E+00  8268   0.104E+01
 -----------------------------------------------------------------------------
|                                                                             |
|           W    W    AA    RRRRR   N    N  II  N    N   GGGG   !!!           |
|           W    W   A  A   R    R  NN   N  II  NN   N  G    G  !!!           |
|           W    W  A    A  R    R  N N  N  II  N N  N  G       !!!           |
|           W WW W  AAAAAA  RRRRR   N  N N  II  N  N N  G  GGG   !            |
|           WW  WW  A    A  R   R   N   NN  II  N   NN  G    G                |
|           W    W  A    A  R    R  N    N  II  N    N   GGGG   !!!           |
|                                                                             |
|     The electronic self-consistency was not achieved in the given           |
|     number of steps (NELM). The forces and other quantities evaluated       |
|     might not be reliable so examine the results carefully. If you find     |
|     spurious results, we suggest increasing NELM, if you were close to      |
|     convergence or switching to a different ALGO or adjusting the           |
|     density mixing parameters otherwise.                                    |
|                                                                             |
 -----------------------------------------------------------------------------

   5 F= -.41953563E+03 E0= -.41944309E+03  d E =-.333736E+03
 trial-energy change: -333.735844  1 .order -351.902345 -522.113984 -181.690705
 step:   1.6900(harm=  1.6900)  dis= 0.60430  next Energy=  -486.188111 (dE=-0.400E+03)
 bond charge predicted
       N       E                     dE             d eps       ncg     rms          rms(c)
DAV:   1    -0.888117765789E+02    0.22968E+03   -0.37868E+04  7274   0.291E+02    0.170E+02
DAV:   2    -0.737637105671E+03   -0.64883E+03   -0.32992E+03  7860   0.177E+02    0.264E+02
DAV:   3    -0.173643701917E+04   -0.99880E+03   -0.10969E+03  7492   0.315E+02    0.404E+02
DAV:   4    -0.108690446794E+04    0.64953E+03   -0.47849E+02  8120   0.168E+02    0.245E+02
DAV:   5    -0.121603323444E+04   -0.12913E+03   -0.41958E+02  9036   0.191E+02    0.282E+02
DAV:   6    -0.694543920810E+03    0.52149E+03   -0.24437E+02  7476   0.129E+02    0.218E+02
DAV:   7    -0.503267512683E+03    0.19128E+03   -0.18571E+02  7676   0.100E+02    0.162E+02
DAV:   8    -0.518732003202E+03   -0.15464E+02   -0.16457E+02  8188   0.888E+01    0.168E+02
DAV:   9    -0.429866708645E+03    0.88865E+02   -0.10953E+02  7516   0.743E+01    0.110E+02
DAV:  10    -0.416539934004E+03    0.13327E+02   -0.83483E+01  7700   0.566E+01    0.112E+02
DAV:  11    -0.404349489344E+03    0.12190E+02   -0.36406E+01  7828   0.247E+01    0.934E+01
DAV:  12    -0.418784651597E+03   -0.14435E+02   -0.27620E+01  8244   0.284E+01    0.105E+02
DAV:  13    -0.402377617791E+03    0.16407E+02   -0.11764E+01  7612   0.204E+01    0.821E+01
DAV:  14    -0.394329638985E+03    0.80480E+01   -0.12172E+01  7988   0.246E+01    0.739E+01
DAV:  15    -0.394722622701E+03   -0.39298E+00   -0.10586E+01  8812   0.212E+01    0.699E+01
DAV:  16    -0.394652679713E+03    0.69943E-01   -0.95165E+00  8508   0.182E+01    0.666E+01
DAV:  17    -0.391391407850E+03    0.32613E+01   -0.10804E+01  7884   0.176E+01    0.551E+01
DAV:  18    -0.387324068180E+03    0.40673E+01   -0.63262E+00  7900   0.147E+01    0.434E+01
DAV:  19    -0.388308988622E+03   -0.98492E+00   -0.82204E+00  8708   0.195E+01    0.433E+01
DAV:  20    -0.388043558915E+03    0.26543E+00   -0.65874E+00  8572   0.153E+01    0.421E+01
DAV:  21    -0.386315152191E+03    0.17284E+01   -0.39830E+00  7732   0.941E+00    0.368E+01
DAV:  22    -0.385933624707E+03    0.38153E+00   -0.20341E+00  7668   0.655E+00    0.340E+01
DAV:  23    -0.385413893549E+03    0.51973E+00   -0.84870E-01  7740   0.356E+00    0.321E+01
DAV:  24    -0.385561575851E+03   -0.14768E+00   -0.92809E-01  7796   0.456E+00    0.308E+01
DAV:  25    -0.385685224625E+03   -0.12365E+00   -0.15568E+00  7932   0.648E+00    0.305E+01
DAV:  26    -0.386036661617E+03   -0.35144E+00   -0.22803E+00  8852   0.861E+00    0.298E+01
DAV:  27    -0.384683855594E+03    0.13528E+01   -0.23740E+00  9108   0.912E+00    0.222E+01
DAV:  28    -0.384039799594E+03    0.64406E+00   -0.18434E+00  8964   0.786E+00    0.196E+01
DAV:  29    -0.383498432895E+03    0.54137E+00   -0.10023E+00  8508   0.556E+00    0.181E+01
DAV:  30    -0.383183498276E+03    0.31493E+00   -0.67777E-01  8892   0.377E+00    0.162E+01
DAV:  31    -0.383091745399E+03    0.91753E-01   -0.20656E-01  8124   0.224E+00    0.155E+01
DAV:  32    -0.383047768686E+03    0.43977E-01   -0.10650E-01  7796   0.131E+00    0.152E+01
DAV:  33    -0.383023023456E+03    0.24745E-01   -0.80609E-02  7892   0.141E+00    0.149E+01
DAV:  34    -0.382969192769E+03    0.53831E-01   -0.90095E-02  8316   0.180E+00    0.141E+01
DAV:  35    -0.382911197264E+03    0.57996E-01   -0.12223E-01  8172   0.220E+00    0.128E+01
DAV:  36    -0.382796333258E+03    0.11486E+00   -0.14896E-01  8844   0.232E+00    0.104E+01
DAV:  37    -0.382752846114E+03    0.43487E-01   -0.16538E-01  8860   0.236E+00    0.897E+00
DAV:  38    -0.382748386258E+03    0.44599E-02   -0.11880E-01  7820   0.121E+00    0.816E+00
DAV:  39    -0.382746806051E+03    0.15802E-02   -0.57115E-02  7956   0.821E-01    0.791E+00
DAV:  40    -0.382725117812E+03    0.21688E-01   -0.31085E-02  7756   0.902E-01    0.708E+00
DAV:  41    -0.382698345306E+03    0.26773E-01   -0.44566E-02  8404   0.132E+00    0.618E+00
DAV:  42    -0.382667529693E+03    0.30816E-01   -0.50208E-02  8180   0.129E+00    0.477E+00
DAV:  43    -0.382672445939E+03   -0.49162E-02   -0.49876E-02  8684   0.117E+00    0.473E+00
DAV:  44    -0.382664573488E+03    0.78725E-02   -0.32569E-02  7756   0.726E-01    0.449E+00
DAV:  45    -0.382650915401E+03    0.13658E-01   -0.14801E-02  7716   0.411E-01    0.419E+00
DAV:  46    -0.382634212443E+03    0.16703E-01   -0.71945E-03  7764   0.407E-01    0.374E+00
DAV:  47    -0.382586889877E+03    0.47323E-01   -0.38426E-02 12132   0.105E+00    0.243E+00
DAV:  48    -0.382584348119E+03    0.25418E-02   -0.25572E-02  8932   0.831E-01    0.237E+00
DAV:  49    -0.382577511891E+03    0.68362E-02   -0.16999E-02  7948   0.703E-01    0.198E+00
DAV:  50    -0.382571394697E+03    0.61172E-02   -0.57414E-03  8004   0.402E-01    0.168E+00
DAV:  51    -0.382567275066E+03    0.41196E-02   -0.34514E-03  8020   0.256E-01    0.143E+00
DAV:  52    -0.382584145084E+03   -0.16870E-01   -0.46480E-02 13676   0.128E+00    0.284E+00
DAV:  53    -0.382582328264E+03    0.18168E-02   -0.13350E-02 10732   0.533E-01    0.265E+00
DAV:  54    -0.382577427835E+03    0.49004E-02   -0.63392E-03  8156   0.429E-01    0.243E+00
DAV:  55    -0.382574907849E+03    0.25200E-02   -0.70316E-03  8556   0.539E-01    0.213E+00
DAV:  56    -0.382567595768E+03    0.73121E-02   -0.57181E-03  8612   0.505E-01    0.154E+00
DAV:  57    -0.382591048039E+03   -0.23452E-01   -0.27848E-02  9972   0.122E+00    0.289E+00
DAV:  58    -0.382571420880E+03    0.19627E-01   -0.20101E-02  8548   0.783E-01    0.170E+00
DAV:  59    -0.382571103837E+03    0.31704E-03   -0.98412E-03  8620   0.590E-01    0.179E+00
DAV:  60    -0.382570842111E+03    0.26173E-03   -0.78392E-03  8348   0.595E-01
 -----------------------------------------------------------------------------
|                                                                             |
|           W    W    AA    RRRRR   N    N  II  N    N   GGGG   !!!           |
|           W    W   A  A   R    R  NN   N  II  NN   N  G    G  !!!           |
|           W    W  A    A  R    R  N N  N  II  N N  N  G       !!!           |
|           W WW W  AAAAAA  RRRRR   N  N N  II  N  N N  G  GGG   !            |
|           WW  WW  A    A  R   R   N   NN  II  N   NN  G    G                |
|           W    W  A    A  R    R  N    N  II  N    N   GGGG   !!!           |
|                                                                             |
|     The electronic self-consistency was not achieved in the given           |
|     number of steps (NELM). The forces and other quantities evaluated       |
|     might not be reliable so examine the results carefully. If you find     |
|     spurious results, we suggest increasing NELM, if you were close to      |
|     convergence or switching to a different ALGO or adjusting the           |
|     density mixing parameters otherwise.                                    |
|                                                                             |
 -----------------------------------------------------------------------------

   6 F= -.48194119E+03 E0= -.48185344E+03  d E =-.396141E+03
 curvature:  -1.24 expect dE=-0.874E+03 dE for cont linesearch -0.957E+01
 trial: gam= 1.55753 g(F)=  0.703E+03 g(S)=  0.000E+00 ort = 0.732E+02 (trialstep = 0.324E+00)
 search vector abs. value=  0.262E+04
 bond charge predicted
       N       E                     dE             d eps       ncg     rms          rms(c)
DAV:   1    -0.147670662645E+03    0.23490E+03   -0.49573E+04  7346   0.345E+02    0.176E+02
DAV:   2    -0.819277306851E+03   -0.67161E+03   -0.47509E+03  7756   0.173E+02    0.215E+02
DAV:   3    -0.334276565487E+04   -0.25235E+04   -0.12324E+03  8388   0.414E+02    0.513E+02
DAV:   4    -0.118331393277E+04    0.21595E+04   -0.80697E+02  8632   0.146E+02    0.293E+02
DAV:   5    -0.131947609061E+04   -0.13616E+03   -0.36981E+02  7644   0.140E+02    0.305E+02
DAV:   6    -0.674512851002E+03    0.64496E+03   -0.18553E+02  7644   0.107E+02    0.161E+02
DAV:   7    -0.682905354179E+03   -0.83925E+01   -0.18371E+02  8044   0.105E+02    0.186E+02
DAV:   8    -0.631120095633E+03    0.51785E+02   -0.11505E+02  7572   0.825E+01    0.132E+02
DAV:   9    -0.759100581002E+03   -0.12798E+03   -0.14368E+02  7732   0.119E+02    0.200E+02
DAV:  10    -0.655213885260E+03    0.10389E+03   -0.82749E+01  8252   0.547E+01    0.154E+02
DAV:  11    -0.651515523090E+03    0.36984E+01   -0.51587E+01  7532   0.472E+01    0.151E+02
DAV:  12    -0.646686464871E+03    0.48291E+01   -0.29662E+01  7740   0.239E+01    0.145E+02
DAV:  13    -0.643798176247E+03    0.28883E+01   -0.27870E+01  7892   0.335E+01    0.145E+02
DAV:  14    -0.609146427845E+03    0.34652E+02   -0.22380E+01  7772   0.314E+01    0.113E+02
DAV:  15    -0.591755202922E+03    0.17391E+02   -0.17752E+01  7668   0.287E+01    0.951E+01
DAV:  16    -0.597934952561E+03   -0.61797E+01   -0.25534E+01  8284   0.372E+01    0.986E+01
DAV:  17    -0.582618179497E+03    0.15317E+02   -0.26185E+01  8316   0.362E+01    0.777E+01
DAV:  18    -0.575379846269E+03    0.72383E+01   -0.25508E+01  8100   0.353E+01    0.653E+01
DAV:  19    -0.577283791084E+03   -0.19039E+01   -0.17099E+01  7876   0.290E+01    0.632E+01
DAV:  20    -0.570581441018E+03    0.67024E+01   -0.10868E+01  7732   0.190E+01    0.480E+01
DAV:  21    -0.568929392044E+03    0.16520E+01   -0.51780E+00  7732   0.125E+01    0.446E+01
DAV:  22    -0.569808587922E+03   -0.87920E+00   -0.41441E+00  7668   0.127E+01    0.449E+01
DAV:  23    -0.570342056625E+03   -0.53347E+00   -0.44059E+00  7756   0.133E+01    0.464E+01
DAV:  24    -0.570291794213E+03    0.50262E-01   -0.47382E+00  7844   0.135E+01    0.423E+01
DAV:  25    -0.567729239279E+03    0.25626E+01   -0.47626E+00  7844   0.126E+01    0.330E+01
DAV:  26    -0.566169689186E+03    0.15596E+01   -0.35781E+00  7828   0.111E+01    0.259E+01
DAV:  27    -0.565177287494E+03    0.99240E+00   -0.21946E+00  7788   0.840E+00    0.241E+01
DAV:  28    -0.564631987701E+03    0.54530E+00   -0.10127E+00  7684   0.425E+00    0.200E+01
DAV:  29    -0.564479868904E+03    0.15212E+00   -0.42045E-01  7844   0.285E+00    0.193E+01
DAV:  30    -0.564391058927E+03    0.88810E-01   -0.19907E-01  7692   0.182E+00    0.189E+01
DAV:  31    -0.564236978638E+03    0.15408E+00   -0.17735E-01  7988   0.217E+00    0.179E+01
DAV:  32    -0.564042804427E+03    0.19417E+00   -0.10797E-01  7860   0.147E+00    0.167E+01
DAV:  33    -0.563801286299E+03    0.24152E+00   -0.36619E-01 11828   0.312E+00    0.164E+01
DAV:  34    -0.563779072357E+03    0.22214E-01   -0.41341E-01  9812   0.337E+00    0.165E+01
DAV:  35    -0.563856832785E+03   -0.77760E-01   -0.46836E-01  9068   0.344E+00    0.173E+01
DAV:  36    -0.563610088442E+03    0.24674E+00   -0.38318E-01  8404   0.344E+00    0.152E+01
DAV:  37    -0.563414164010E+03    0.19592E+00   -0.17723E-01  8540   0.242E+00    0.132E+01
DAV:  38    -0.563168943352E+03    0.24522E+00   -0.25877E-01  8772   0.288E+00    0.107E+01
DAV:  39    -0.563021683990E+03    0.14726E+00   -0.32028E-01  8540   0.265E+00    0.692E+00
DAV:  40    -0.562990327326E+03    0.31357E-01   -0.12040E-01  8292   0.149E+00    0.600E+00
DAV:  41    -0.562966718040E+03    0.23609E-01   -0.91443E-02  8116   0.141E+00    0.515E+00
DAV:  42    -0.562939216204E+03    0.27502E-01   -0.64922E-02  7924   0.134E+00    0.411E+00
DAV:  43    -0.562939958754E+03   -0.74255E-03   -0.70212E-02  8004   0.149E+00    0.378E+00
DAV:  44    -0.562929242933E+03    0.10716E-01   -0.45483E-02  7956   0.119E+00    0.347E+00
DAV:  45    -0.562935236881E+03   -0.59939E-02   -0.27213E-02  8116   0.864E-01    0.362E+00
DAV:  46    -0.562929643465E+03    0.55934E-02   -0.22689E-02  8172   0.847E-01    0.321E+00
DAV:  47    -0.562927423756E+03    0.22197E-02   -0.76863E-02  9124   0.152E+00    0.339E+00
DAV:  48    -0.562915192367E+03    0.12231E-01   -0.22219E-02  8708   0.809E-01    0.258E+00
DAV:  49    -0.562910551912E+03    0.46405E-02   -0.13420E-02  8348   0.630E-01    0.225E+00
DAV:  50    -0.562909616246E+03    0.93567E-03   -0.91724E-03  8300   0.567E-01    0.202E+00
DAV:  51    -0.562907777133E+03    0.18391E-02   -0.85388E-03  8028   0.498E-01    0.176E+00
DAV:  52    -0.562932485302E+03   -0.24708E-01   -0.36635E-02 11156   0.136E+00    0.309E+00
DAV:  53    -0.562911816046E+03    0.20669E-01   -0.17113E-02 10444   0.990E-01    0.198E+00
DAV:  54    -0.562899324866E+03    0.12491E-01   -0.11510E-02  8828   0.673E-01    0.915E-01
DAV:  55    -0.562899513617E+03   -0.18875E-03   -0.49681E-03  8652   0.443E-01    0.838E-01
DAV:  56    -0.562898659174E+03    0.85444E-03   -0.34873E-03  8452   0.357E-01    0.648E-01
DAV:  57    -0.562902471099E+03   -0.38119E-02   -0.45264E-03  8908   0.401E-01    0.132E+00
DAV:  58    -0.562898241211E+03    0.42299E-02   -0.37062E-03  8196   0.348E-01    0.614E-01
DAV:  59    -0.562897813769E+03    0.42744E-03   -0.90174E-04  8204   0.195E-01    0.423E-01
DAV:  60    -0.562897661504E+03    0.15226E-03   -0.67706E-04  8380   0.150E-01
 -----------------------------------------------------------------------------
|                                                                             |
|           W    W    AA    RRRRR   N    N  II  N    N   GGGG   !!!           |
|           W    W   A  A   R    R  NN   N  II  NN   N  G    G  !!!           |
|           W    W  A    A  R    R  N N  N  II  N N  N  G       !!!           |
|           W WW W  AAAAAA  RRRRR   N  N N  II  N  N N  G  GGG   !            |
|           WW  WW  A    A  R   R   N   NN  II  N   NN  G    G                |
|           W    W  A    A  R    R  N    N  II  N    N   GGGG   !!!           |
|                                                                             |
|     The electronic self-consistency was not achieved in the given           |
|     number of steps (NELM). The forces and other quantities evaluated       |
|     might not be reliable so examine the results carefully. If you find     |
|     spurious results, we suggest increasing NELM, if you were close to      |
|     convergence or switching to a different ALGO or adjusting the           |
|     density mixing parameters otherwise.                                    |
|                                                                             |
 -----------------------------------------------------------------------------

   7 F= -.65940082E+03 E0= -.65928091E+03  d E =-.177460E+03
 trial-energy change: -177.459625  1 .order -186.594987 -264.930785 -108.259189
 step:   0.5485(harm=  0.5485)  dis= 0.33869  next Energy=  -705.939425 (dE=-0.224E+03)
 bond charge predicted
       N       E                     dE             d eps       ncg     rms          rms(c)
DAV:   1    -0.495360008308E+03    0.67538E+02   -0.22691E+04  7298   0.212E+02    0.660E+01
DAV:   2    -0.668139289507E+03   -0.17278E+03   -0.14007E+03  7564   0.859E+01    0.116E+02
DAV:   3    -0.100094786454E+04   -0.33281E+03   -0.25914E+02  7788   0.135E+02    0.248E+02
DAV:   4    -0.918753280147E+03    0.82195E+02   -0.13576E+02  8281   0.106E+02    0.174E+02
DAV:   5    -0.683025088095E+03    0.23573E+03   -0.73136E+01  8636   0.900E+01    0.114E+02
DAV:   6    -0.627478503302E+03    0.55547E+02   -0.37191E+01  7724   0.475E+01    0.590E+01
DAV:   7    -0.636489662278E+03   -0.90112E+01   -0.42582E+01  7892   0.412E+01    0.785E+01
DAV:   8    -0.628795848150E+03    0.76938E+01   -0.25035E+01  7756   0.297E+01    0.640E+01
DAV:   9    -0.623929548997E+03    0.48663E+01   -0.12736E+01  7572   0.176E+01    0.505E+01
DAV:  10    -0.629356597858E+03   -0.54270E+01   -0.76104E+00  7948   0.155E+01    0.639E+01
DAV:  11    -0.628187069597E+03    0.11695E+01   -0.53178E+00  7700   0.124E+01    0.566E+01
DAV:  12    -0.628539323275E+03   -0.35225E+00   -0.39048E+00  7740   0.131E+01    0.581E+01
DAV:  13    -0.625788616622E+03    0.27507E+01   -0.58770E+00  8644   0.163E+01    0.476E+01
DAV:  14    -0.622413960106E+03    0.33747E+01   -0.83713E+00  8740   0.191E+01    0.343E+01
DAV:  15    -0.619401091010E+03    0.30129E+01   -0.42159E+00  8756   0.137E+01    0.279E+01
DAV:  16    -0.619049644334E+03    0.35145E+00   -0.18337E+00  8148   0.800E+00    0.244E+01
DAV:  17    -0.619210105055E+03   -0.16046E+00   -0.79334E-01  7772   0.330E+00    0.250E+01
DAV:  18    -0.619272127421E+03   -0.62022E-01   -0.44086E-01 11220   0.997E-01    0.251E+01
DAV:  19    -0.619271036336E+03    0.10911E-02   -0.17052E-02  8716   0.267E-01    0.250E+01
DAV:  20    -0.619134310471E+03    0.13673E+00   -0.19136E-02 10660   0.750E-01    0.242E+01
DAV:  21    -0.619175382382E+03   -0.41072E-01   -0.44771E-01 10428   0.461E+00    0.240E+01
DAV:  22    -0.618259148953E+03    0.91623E+00   -0.55682E-01  9900   0.476E+00    0.185E+01
DAV:  23    -0.617936113371E+03    0.32304E+00   -0.58357E-01  8500   0.483E+00    0.165E+01
DAV:  24    -0.617846577602E+03    0.89536E-01   -0.62800E-01  8404   0.444E+00    0.159E+01
DAV:  25    -0.618041842197E+03   -0.19526E+00   -0.84125E-01  8372   0.506E+00    0.176E+01
DAV:  26    -0.618073690587E+03   -0.31848E-01   -0.63647E-01  8364   0.386E+00    0.183E+01
DAV:  27    -0.617982860033E+03    0.90831E-01   -0.47712E-01  7916   0.304E+00    0.180E+01
DAV:  28    -0.617971180010E+03    0.11680E-01   -0.30490E-01  7740   0.222E+00    0.175E+01
DAV:  29    -0.617948810836E+03    0.22369E-01   -0.21127E-01  7772   0.190E+00    0.174E+01
DAV:  30    -0.617960261647E+03   -0.11451E-01   -0.11067E-01  7724   0.129E+00    0.171E+01
DAV:  31    -0.618010947078E+03   -0.50685E-01   -0.94513E-02  7796   0.148E+00    0.174E+01
DAV:  32    -0.618057462553E+03   -0.46515E-01   -0.68306E-02  7716   0.105E+00    0.180E+01
DAV:  33    -0.618199453809E+03   -0.14199E+00   -0.64128E-02  7764   0.116E+00    0.193E+01
DAV:  34    -0.618380250475E+03   -0.18080E+00   -0.80217E-02  7716   0.113E+00    0.210E+01
DAV:  35    -0.618591650079E+03   -0.21140E+00   -0.88408E-02  7700   0.101E+00    0.226E+01
DAV:  36    -0.618858440164E+03   -0.26679E+00   -0.99129E-02  7660   0.916E-01    0.245E+01
DAV:  37    -0.618785436684E+03    0.73003E-01   -0.24981E-02 10756   0.307E-01    0.240E+01
DAV:  38    -0.618887257007E+03   -0.10182E+00   -0.84490E-03  7684   0.255E-01    0.246E+01
DAV:  39    -0.618842686907E+03    0.44570E-01   -0.16215E-03  7812   0.190E-01    0.244E+01
DAV:  40    -0.618480409900E+03    0.36228E+00   -0.89597E-02  8396   0.130E+00    0.223E+01
DAV:  41    -0.617953051440E+03    0.52736E+00   -0.33560E-01  7804   0.188E+00    0.176E+01
DAV:  42    -0.617410591547E+03    0.54246E+00   -0.68929E-01  7748   0.227E+00    0.117E+01
DAV:  43    -0.617260150427E+03    0.15044E+00   -0.33587E-01  7956   0.177E+00    0.902E+00
DAV:  44    -0.617246233790E+03    0.13917E-01   -0.12217E-01  7796   0.115E+00    0.868E+00
DAV:  45    -0.617268129379E+03   -0.21896E-01   -0.35052E-02  7476   0.603E-01    0.914E+00
DAV:  46    -0.617281951943E+03   -0.13823E-01   -0.11403E-02  7732   0.417E-01    0.934E+00
DAV:  47    -0.617719255657E+03   -0.43730E+00   -0.40597E-01  7996   0.191E+00    0.141E+01
DAV:  48    -0.617643513391E+03    0.75742E-01   -0.19406E-01  7748   0.171E+00    0.134E+01
DAV:  49    -0.617560799847E+03    0.82714E-01   -0.38962E-02  7420   0.834E-01    0.126E+01
DAV:  50    -0.617451959251E+03    0.10884E+00   -0.43123E-02  7660   0.663E-01    0.112E+01
DAV:  51    -0.617365482285E+03    0.86477E-01   -0.46262E-02  7676   0.709E-01    0.984E+00
DAV:  52    -0.617246131626E+03    0.11935E+00   -0.15372E-01  7892   0.168E+00    0.799E+00
DAV:  53    -0.617128601652E+03    0.11753E+00   -0.20040E-01  7516   0.149E+00    0.543E+00
DAV:  54    -0.617087391160E+03    0.41210E-01   -0.98131E-02  7892   0.940E-01    0.408E+00
DAV:  55    -0.617072465140E+03    0.14926E-01   -0.50495E-02  8068   0.778E-01    0.345E+00
DAV:  56    -0.617058287862E+03    0.14177E-01   -0.47646E-02  7804   0.680E-01    0.261E+00
DAV:  57    -0.617064541562E+03   -0.62537E-02   -0.57874E-02  8132   0.912E-01    0.264E+00
DAV:  58    -0.617053160954E+03    0.11381E-01   -0.37881E-02  7596   0.916E-01    0.188E+00
DAV:  59    -0.617050185343E+03    0.29756E-02   -0.92460E-03  8316   0.364E-01    0.157E+00
DAV:  60    -0.617049320725E+03    0.86462E-03   -0.69489E-03  7716   0.319E-01
 -----------------------------------------------------------------------------
|                                                                             |
|           W    W    AA    RRRRR   N    N  II  N    N   GGGG   !!!           |
|           W    W   A  A   R    R  NN   N  II  NN   N  G    G  !!!           |
|           W    W  A    A  R    R  N N  N  II  N N  N  G       !!!           |
|           W WW W  AAAAAA  RRRRR   N  N N  II  N  N N  G  GGG   !            |
|           WW  WW  A    A  R   R   N   NN  II  N   NN  G    G                |
|           W    W  A    A  R    R  N    N  II  N    N   GGGG   !!!           |
|                                                                             |
|     The electronic self-consistency was not achieved in the given           |
|     number of steps (NELM). The forces and other quantities evaluated       |
|     might not be reliable so examine the results carefully. If you find     |
|     spurious results, we suggest increasing NELM, if you were close to      |
|     convergence or switching to a different ALGO or adjusting the           |
|     density mixing parameters otherwise.                                    |
|                                                                             |
 -----------------------------------------------------------------------------

   8 F= -.71170381E+03 E0= -.71154695E+03  d E =-.229763E+03
 curvature:  -0.88 expect dE=-0.169E+03 dE for cont linesearch -0.744E+01
 ZBRENT: increasing intervall
 opt :   0.9967  next Energy=  -695.528719 (dE=-0.214E+03)
 bond charge predicted
       N       E                     dE             d eps       ncg     rms          rms(c)
DAV:   1     0.574000047912E+03    0.11911E+04   -0.10034E+05  7346   0.550E+02    0.543E+02
DAV:   2    -0.114072577506E+04   -0.17147E+04   -0.14713E+04  7612   0.282E+02    0.304E+02
DAV:   3    -0.863591491286E+04   -0.74952E+04   -0.36316E+04 11578   0.805E+02    0.246E+03
DAV:   4    -0.102673421916E+05   -0.16314E+04   -0.16311E+04 11716   0.212E+02    0.201E+03
DAV:   5    -0.571074255967E+04    0.45566E+04   -0.16395E+03 10476   0.959E+01    0.107E+03
DAV:   6    -0.119076182580E+04    0.45200E+04   -0.28613E+04 11908   0.202E+02    0.100E+03
DAV:   7    -0.259004074212E+04   -0.13993E+04   -0.13960E+04 11452   0.179E+02    0.507E+02
DAV:   8    -0.174271059761E+04    0.84733E+03   -0.19498E+03 10268   0.245E+02    0.403E+02
DAV:   9    -0.787533937020E+03    0.95518E+03   -0.10029E+03  8468   0.177E+02    0.196E+02
DAV:  10    -0.105738446453E+04   -0.26985E+03   -0.80162E+02  8468   0.180E+02    0.263E+02
DAV:  11    -0.774185294551E+03    0.28320E+03   -0.53041E+02  7796   0.107E+02    0.212E+02
DAV:  12    -0.644400872334E+03    0.12978E+03   -0.19576E+02  7564   0.615E+01    0.157E+02
DAV:  13    -0.644096406848E+03    0.30447E+00   -0.17438E+02  7924   0.465E+01    0.144E+02
DAV:  14    -0.645227590358E+03   -0.11312E+01   -0.66069E+01  7780   0.284E+01    0.138E+02
DAV:  15    -0.645876243273E+03   -0.64865E+00   -0.25931E+01  7852   0.167E+01    0.136E+02
DAV:  16    -0.646043245582E+03   -0.16700E+00   -0.11604E+01  7660   0.140E+01    0.131E+02
DAV:  17    -0.645555027436E+03    0.48822E+00   -0.98287E+00  7620   0.151E+01    0.126E+02
DAV:  18    -0.644701826614E+03    0.85320E+00   -0.71639E+00  7636   0.155E+01    0.117E+02
DAV:  19    -0.644351771811E+03    0.35005E+00   -0.10377E+01  7660   0.193E+01    0.101E+02
DAV:  20    -0.646839948047E+03   -0.24882E+01   -0.22134E+01  7860   0.284E+01    0.653E+01
DAV:  21    -0.645005121557E+03    0.18348E+01   -0.22612E+01  7676   0.296E+01    0.507E+01
DAV:  22    -0.640643948422E+03    0.43612E+01   -0.14252E+01  7660   0.220E+01    0.419E+01
DAV:  23    -0.638992247014E+03    0.16517E+01   -0.79725E+00  7628   0.160E+01    0.404E+01
DAV:  24    -0.638015882620E+03    0.97636E+00   -0.40380E+00  7844   0.107E+01    0.382E+01
DAV:  25    -0.637428780405E+03    0.58710E+00   -0.25015E+00  7740   0.855E+00    0.360E+01
DAV:  26    -0.637443564058E+03   -0.14784E-01   -0.19778E+00  7700   0.792E+00    0.344E+01
DAV:  27    -0.636955497910E+03    0.48807E+00   -0.24335E+00  7932   0.830E+00    0.313E+01
DAV:  28    -0.636639669503E+03    0.31583E+00   -0.26680E+00  7724   0.919E+00    0.277E+01
DAV:  29    -0.636213462698E+03    0.42621E+00   -0.27434E+00  7652   0.867E+00    0.251E+01
DAV:  30    -0.635731649808E+03    0.48181E+00   -0.16155E+00  7676   0.662E+00    0.223E+01
DAV:  31    -0.635384233069E+03    0.34742E+00   -0.85444E-01  7700   0.524E+00    0.208E+01
DAV:  32    -0.635368722664E+03    0.15510E-01   -0.43409E-01  7660   0.345E+00    0.210E+01
DAV:  33    -0.635235754413E+03    0.13297E+00   -0.21666E-01  7628   0.238E+00    0.201E+01
DAV:  34    -0.635195700652E+03    0.40054E-01   -0.21757E-01  7796   0.221E+00    0.197E+01
DAV:  35    -0.635126644950E+03    0.69056E-01   -0.19974E-01  7964   0.229E+00    0.198E+01
DAV:  36    -0.635139611871E+03   -0.12967E-01   -0.22841E-01  7876   0.241E+00    0.201E+01
DAV:  37    -0.635136334850E+03    0.32770E-02   -0.14952E-01  7796   0.203E+00    0.201E+01
DAV:  38    -0.635106449480E+03    0.29885E-01   -0.13251E-01  7884   0.194E+00    0.199E+01
DAV:  39    -0.635082286306E+03    0.24163E-01   -0.71055E-02  7868   0.154E+00    0.203E+01
DAV:  40    -0.635082886367E+03   -0.60006E-03   -0.56111E-02  7780   0.134E+00    0.205E+01
DAV:  41    -0.635045427512E+03    0.37459E-01   -0.44627E-02  7772   0.118E+00    0.202E+01
DAV:  42    -0.635031672022E+03    0.13755E-01   -0.36913E-02  7956   0.931E-01    0.201E+01
DAV:  43    -0.635019936798E+03    0.11735E-01   -0.28401E-02  7684   0.697E-01    0.201E+01
DAV:  44    -0.635014113453E+03    0.58233E-02   -0.11540E-02  7772   0.485E-01    0.201E+01
DAV:  45    -0.635013454018E+03    0.65944E-03   -0.79160E-03  7772   0.486E-01    0.200E+01
DAV:  46    -0.635008831505E+03    0.46225E-02   -0.67273E-03  7788   0.453E-01    0.198E+01
DAV:  47    -0.636548163705E+03   -0.15393E+01   -0.97397E-01 10956   0.720E+00    0.268E+01
DAV:  48    -0.635321388101E+03    0.12268E+01   -0.83761E-01 10508   0.555E+00    0.221E+01
DAV:  49    -0.635253620623E+03    0.67767E-01   -0.54904E-01  9260   0.476E+00    0.197E+01
DAV:  50    -0.635216907319E+03    0.36713E-01   -0.29042E-01  9444   0.343E+00    0.185E+01
DAV:  51    -0.635081813604E+03    0.13509E+00   -0.21132E-01  8772   0.296E+00    0.179E+01
DAV:  52    -0.652089567386E+03   -0.17008E+02   -0.84253E+00 13012   0.185E+01    0.584E+01
DAV:  53    -0.648050816631E+03    0.40388E+01   -0.25566E+00  8193   0.466E+00    0.517E+01
DAV:  54    -0.641448816578E+03    0.66020E+01   -0.24430E+00  9188   0.117E+01    0.397E+01
DAV:  55    -0.637670195402E+03    0.37786E+01   -0.32664E+00  9068   0.117E+01    0.270E+01
DAV:  56    -0.636273952754E+03    0.13962E+01   -0.39334E+00  8612   0.105E+01    0.181E+01
DAV:  57    -0.636294733606E+03   -0.20781E-01   -0.35582E+00  8084   0.108E+01    0.172E+01
DAV:  58    -0.635710848743E+03    0.58388E+00   -0.14590E+00  7908   0.766E+00    0.140E+01
DAV:  59    -0.635379159576E+03    0.33169E+00   -0.49368E-01  7884   0.420E+00    0.109E+01
DAV:  60    -0.635280195014E+03    0.98965E-01   -0.23079E-01  7868   0.260E+00
 -----------------------------------------------------------------------------
|                                                                             |
|           W    W    AA    RRRRR   N    N  II  N    N   GGGG   !!!           |
|           W    W   A  A   R    R  NN   N  II  NN   N  G    G  !!!           |
|           W    W  A    A  R    R  N N  N  II  N N  N  G       !!!           |
|           W WW W  AAAAAA  RRRRR   N  N N  II  N  N N  G  GGG   !            |
|           WW  WW  A    A  R   R   N   NN  II  N   NN  G    G                |
|           W    W  A    A  R    R  N    N  II  N    N   GGGG   !!!           |
|                                                                             |
|     The electronic self-consistency was not achieved in the given           |
|     number of steps (NELM). The forces and other quantities evaluated       |
|     might not be reliable so examine the results carefully. If you find     |
|     spurious results, we suggest increasing NELM, if you were close to      |
|     convergence or switching to a different ALGO or adjusting the           |
|     density mixing parameters otherwise.                                    |
|                                                                             |
 -----------------------------------------------------------------------------

   9 F= -.72652888E+03 E0= -.72639710E+03  d E =-.244588E+03
 curvature:   1.92 expect dE= 0.112E+04 dE for cont linesearch  0.265E+01
 trial: gam= 1.19914 g(F)=  0.583E+03 g(S)=  0.000E+00 ort =-0.602E+02 (trialstep = 0.286E+00)
 search vector abs. value=  0.421E+04
 bond charge predicted
       N       E                     dE             d eps       ncg     rms          rms(c)
DAV:   1    -0.132254479871E+03    0.50312E+03   -0.65171E+04  7354   0.412E+02    0.299E+02
DAV:   2    -0.120400078634E+04   -0.10717E+04   -0.70584E+03  7708   0.214E+02    0.287E+02
DAV:   3    -0.444556165801E+04   -0.32416E+04   -0.38873E+03  9107   0.532E+02    0.652E+02
DAV:   4    -0.485989226636E+04   -0.41433E+03   -0.62379E+03 11237   0.195E+02    0.773E+02
DAV:   5    -0.325287246299E+04    0.16070E+04   -0.17624E+03  9964   0.169E+02    0.711E+02
DAV:   6    -0.356589062792E+04   -0.31302E+03   -0.89504E+02  9868   0.103E+02    0.719E+02
DAV:   7    -0.284737365146E+04    0.71852E+03   -0.51172E+02  9884   0.693E+01    0.554E+02
DAV:   8    -0.140551874887E+04    0.14419E+04   -0.17386E+03 13100   0.179E+02    0.290E+02
DAV:   9    -0.103188007202E+04    0.37364E+03   -0.13315E+03 10972   0.147E+02    0.247E+02
DAV:  10    -0.811649739117E+03    0.22023E+03   -0.77017E+02  8012   0.938E+01    0.181E+02
DAV:  11    -0.788715100485E+03    0.22935E+02   -0.41548E+02  9436   0.879E+01    0.171E+02
DAV:  12    -0.791260951952E+03   -0.25459E+01   -0.15842E+02  8340   0.561E+01    0.163E+02
DAV:  13    -0.768796363471E+03    0.22465E+02   -0.75527E+01  7780   0.358E+01    0.156E+02
DAV:  14    -0.759298989018E+03    0.94974E+01   -0.36549E+01  7756   0.301E+01    0.145E+02
DAV:  15    -0.761742375718E+03   -0.24434E+01   -0.24731E+01  7836   0.290E+01    0.134E+02
DAV:  16    -0.756317991210E+03    0.54244E+01   -0.16921E+01  7684   0.215E+01    0.124E+02
DAV:  17    -0.752632105435E+03    0.36859E+01   -0.10499E+01  7732   0.131E+01    0.122E+02
DAV:  18    -0.751887072465E+03    0.74503E+00   -0.47133E+00  8052   0.664E+00    0.119E+02
DAV:  19    -0.751698823678E+03    0.18825E+00   -0.20237E+00  8260   0.373E+00    0.118E+02
DAV:  20    -0.751277923769E+03    0.42090E+00   -0.11456E+00  7988   0.520E+00    0.115E+02
DAV:  21    -0.753999183711E+03   -0.27213E+01   -0.30956E+00  8580   0.114E+01    0.109E+02
DAV:  22    -0.752914614575E+03    0.10846E+01   -0.39959E+00  8812   0.124E+01    0.993E+01
DAV:  23    -0.752844846284E+03    0.69768E-01   -0.10700E+01  8436   0.193E+01    0.845E+01
DAV:  24    -0.757229553893E+03   -0.43847E+01   -0.13294E+01  8292   0.227E+01    0.820E+01
DAV:  25    -0.758498435149E+03   -0.12689E+01   -0.10608E+01  7836   0.162E+01    0.789E+01
DAV:  26    -0.758707665698E+03   -0.20923E+00   -0.59812E+00  7772   0.991E+00    0.771E+01
DAV:  27    -0.761557917099E+03   -0.28503E+01   -0.56534E+00  7764   0.131E+01    0.801E+01
DAV:  28    -0.760510531854E+03    0.10474E+01   -0.10043E+01  8060   0.202E+01    0.775E+01
DAV:  29    -0.757851708390E+03    0.26588E+01   -0.78976E+00  8012   0.183E+01    0.750E+01
DAV:  30    -0.758419357992E+03   -0.56765E+00   -0.67146E+00  7884   0.159E+01    0.838E+01
DAV:  31    -0.753876143288E+03    0.45432E+01   -0.39921E+00  7700   0.123E+01    0.722E+01
DAV:  32    -0.752464646384E+03    0.14115E+01   -0.28326E+00  7828   0.967E+00    0.701E+01
DAV:  33    -0.750991529319E+03    0.14731E+01   -0.25723E+00  7708   0.802E+00    0.650E+01
DAV:  34    -0.750538204927E+03    0.45332E+00   -0.20995E+00  7668   0.713E+00    0.640E+01
DAV:  35    -0.749461801351E+03    0.10764E+01   -0.12224E+00  7620   0.506E+00    0.622E+01
DAV:  36    -0.748221172903E+03    0.12406E+01   -0.13428E+00  7988   0.594E+00    0.577E+01
DAV:  37    -0.746215457892E+03    0.20057E+01   -0.11794E+00  7932   0.518E+00    0.509E+01
DAV:  38    -0.744097119069E+03    0.21183E+01   -0.14388E+00  8452   0.663E+00    0.472E+01
DAV:  39    -0.742502709622E+03    0.15944E+01   -0.11990E+00  7996   0.608E+00    0.393E+01
DAV:  40    -0.741499404710E+03    0.10033E+01   -0.10425E+00  7916   0.486E+00    0.350E+01
DAV:  41    -0.741213637707E+03    0.28577E+00   -0.64286E-01  7660   0.292E+00    0.341E+01
DAV:  42    -0.741003698329E+03    0.20994E+00   -0.31143E-01  7772   0.178E+00    0.319E+01
DAV:  43    -0.740916218550E+03    0.87480E-01   -0.17310E-01  7884   0.208E+00    0.292E+01
DAV:  44    -0.740457049929E+03    0.45917E+00   -0.20376E-01  8004   0.229E+00    0.250E+01
DAV:  45    -0.740024437083E+03    0.43261E+00   -0.26457E-01  7892   0.249E+00    0.213E+01
DAV:  46    -0.739727813498E+03    0.29662E+00   -0.24703E-01  8180   0.229E+00    0.181E+01
DAV:  47    -0.740022419872E+03   -0.29461E+00   -0.19527E+00 11276   0.736E+00    0.165E+01
DAV:  48    -0.739861839764E+03    0.16058E+00   -0.80582E-01  8132   0.328E+00    0.148E+01
DAV:  49    -0.739770371635E+03    0.91468E-01   -0.25109E-01  7452   0.158E+00    0.138E+01
DAV:  50    -0.739697531813E+03    0.72840E-01   -0.13120E-01  7756   0.191E+00    0.132E+01
DAV:  51    -0.739641480896E+03    0.56051E-01   -0.17680E-01  7836   0.270E+00    0.123E+01
DAV:  52    -0.739517016940E+03    0.12446E+00   -0.57240E-01 10540   0.458E+00    0.925E+00
DAV:  53    -0.739348189344E+03    0.16883E+00   -0.39441E-01  9332   0.393E+00    0.746E+00
DAV:  54    -0.739245831252E+03    0.10236E+00   -0.23099E-01  8956   0.274E+00    0.508E+00
DAV:  55    -0.739199326037E+03    0.46505E-01   -0.10055E-01  8628   0.171E+00    0.440E+00
DAV:  56    -0.739173547774E+03    0.25778E-01   -0.72174E-02  8732   0.152E+00    0.403E+00
DAV:  57    -0.739244999804E+03   -0.71452E-01   -0.21241E-01 11780   0.265E+00    0.575E+00
DAV:  58    -0.739147021528E+03    0.97978E-01   -0.11546E-01  8764   0.201E+00    0.355E+00
DAV:  59    -0.739129125155E+03    0.17896E-01   -0.50665E-02  8036   0.139E+00    0.289E+00
DAV:  60    -0.739127212368E+03    0.19128E-02   -0.31475E-02  8476   0.118E+00
 -----------------------------------------------------------------------------
|                                                                             |
|           W    W    AA    RRRRR   N    N  II  N    N   GGGG   !!!           |
|           W    W   A  A   R    R  NN   N  II  NN   N  G    G  !!!           |
|           W    W  A    A  R    R  N N  N  II  N N  N  G       !!!           |
|           W WW W  AAAAAA  RRRRR   N  N N  II  N  N N  G  GGG   !            |
|           WW  WW  A    A  R   R   N   NN  II  N   NN  G    G                |
|           W    W  A    A  R    R  N    N  II  N    N   GGGG   !!!           |
|                                                                             |
|     The electronic self-consistency was not achieved in the given           |
|     number of steps (NELM). The forces and other quantities evaluated       |
|     might not be reliable so examine the results carefully. If you find     |
|     spurious results, we suggest increasing NELM, if you were close to      |
|     convergence or switching to a different ALGO or adjusting the           |
|     density mixing parameters otherwise.                                    |
|                                                                             |
 -----------------------------------------------------------------------------

  10 F= -.82779866E+03 E0= -.82766069E+03  d E =-.101270E+03
 trial-energy change: -101.269784  1 .order -106.607102 -145.964433  -67.249771
 step:   0.5301(harm=  0.5301)  dis= 0.42728  next Energy=  -861.863361 (dE=-0.135E+03)
 bond charge predicted
       N       E                     dE             d eps       ncg     rms          rms(c)
DAV:   1    -0.427237991865E+03    0.31189E+03   -0.45884E+04  7346   0.328E+02    0.189E+02
DAV:   2    -0.118516641795E+04   -0.75793E+03   -0.39646E+03  7524   0.179E+02    0.274E+02
DAV:   3    -0.227795455626E+04   -0.10928E+04   -0.11977E+03  7580   0.315E+02    0.323E+02
DAV:   4    -0.328852469080E+04   -0.10106E+04   -0.15948E+03  9072   0.211E+02    0.423E+02
DAV:   5    -0.216199794513E+04    0.11265E+04   -0.20645E+03 10076   0.189E+02    0.349E+02
DAV:   6    -0.140013006760E+04    0.76187E+03   -0.72206E+02  9388   0.110E+02    0.241E+02
DAV:   7    -0.122984879905E+04    0.17028E+03   -0.60400E+02  9284   0.144E+02    0.247E+02
DAV:   8    -0.105632044537E+04    0.17353E+03   -0.53120E+02 10180   0.871E+01    0.197E+02
DAV:   9    -0.921132651801E+03    0.13519E+03   -0.23079E+02  7572   0.841E+01    0.166E+02
DAV:  10    -0.828350082951E+03    0.92783E+02   -0.14837E+02  8356   0.566E+01    0.123E+02
DAV:  11    -0.816539265030E+03    0.11811E+02   -0.94757E+01  8060   0.543E+01    0.115E+02
DAV:  12    -0.795059964567E+03    0.21479E+02   -0.64452E+01  8124   0.379E+01    0.976E+01
DAV:  13    -0.791660157559E+03    0.33998E+01   -0.34291E+01  7620   0.248E+01    0.924E+01
DAV:  14    -0.790513094509E+03    0.11471E+01   -0.17013E+01  7892   0.146E+01    0.860E+01
DAV:  15    -0.790218412556E+03    0.29468E+00   -0.68580E+00  9132   0.764E+00    0.833E+01
DAV:  16    -0.789358112201E+03    0.86030E+00   -0.22674E+00  7756   0.600E+00    0.806E+01
DAV:  17    -0.788863109405E+03    0.49500E+00   -0.22149E+00  7772   0.809E+00    0.764E+01
DAV:  18    -0.787697383340E+03    0.11657E+01   -0.32836E+00  8588   0.108E+01    0.661E+01
DAV:  19    -0.785079487357E+03    0.26179E+01   -0.40631E+00  8956   0.126E+01    0.451E+01
DAV:  20    -0.784923778927E+03    0.15571E+00   -0.55673E+00  8580   0.131E+01    0.324E+01
DAV:  21    -0.785876775634E+03   -0.95300E+00   -0.61865E+00  8476   0.110E+01    0.310E+01
DAV:  22    -0.786155740749E+03   -0.27897E+00   -0.34325E+00  7684   0.693E+00    0.314E+01
DAV:  23    -0.785766057425E+03    0.38968E+00   -0.16724E+00  7620   0.568E+00    0.296E+01
DAV:  24    -0.785244709097E+03    0.52135E+00   -0.14055E+00  7676   0.737E+00    0.263E+01
DAV:  25    -0.786049027401E+03   -0.80432E+00   -0.19159E+00  7716   0.949E+00    0.285E+01
DAV:  26    -0.785835065297E+03    0.21396E+00   -0.20450E+00  7876   0.969E+00    0.265E+01
DAV:  27    -0.786068962100E+03   -0.23390E+00   -0.24399E+00  7820   0.945E+00    0.276E+01
DAV:  28    -0.784308174411E+03    0.17608E+01   -0.22606E+00  7764   0.915E+00    0.207E+01
DAV:  29    -0.783787428844E+03    0.52075E+00   -0.15828E+00  7756   0.672E+00    0.189E+01
DAV:  30    -0.783243843739E+03    0.54359E+00   -0.80898E-01  7780   0.494E+00    0.148E+01
DAV:  31    -0.783022045027E+03    0.22180E+00   -0.37144E-01  7756   0.289E+00    0.134E+01
DAV:  32    -0.782966591136E+03    0.55454E-01   -0.17740E-01  7748   0.212E+00    0.133E+01
DAV:  33    -0.782894329837E+03    0.72261E-01   -0.21689E-01  7764   0.240E+00    0.124E+01
DAV:  34    -0.782805142694E+03    0.89187E-01   -0.25336E-01  7764   0.246E+00    0.114E+01
DAV:  35    -0.782548094093E+03    0.25705E+00   -0.36620E-01  8100   0.317E+00    0.775E+00
DAV:  36    -0.782476998437E+03    0.71096E-01   -0.21747E-01  7780   0.181E+00    0.645E+00
DAV:  37    -0.782455980743E+03    0.21018E-01   -0.12689E-01  7772   0.151E+00    0.571E+00
DAV:  38    -0.782442920148E+03    0.13061E-01   -0.73207E-02  7756   0.138E+00    0.530E+00
DAV:  39    -0.782413985237E+03    0.28935E-01   -0.51552E-02  8204   0.122E+00    0.437E+00
DAV:  40    -0.782396561961E+03    0.17423E-01   -0.42178E-02  8188   0.955E-01    0.351E+00
DAV:  41    -0.782384796460E+03    0.11766E-01   -0.36231E-02  8772   0.769E-01    0.281E+00
DAV:  42    -0.782383523734E+03    0.12727E-02   -0.23873E-02  8164   0.659E-01    0.260E+00
DAV:  43    -0.782371481915E+03    0.12042E-01   -0.20948E-02  8588   0.648E-01    0.190E+00
DAV:  44    -0.782370152893E+03    0.13290E-02   -0.18527E-02  8028   0.678E-01    0.180E+00
DAV:  45    -0.782367141701E+03    0.30112E-02   -0.13836E-02  8164   0.648E-01    0.158E+00
DAV:  46    -0.782363193060E+03    0.39486E-02   -0.74740E-03  8004   0.451E-01    0.130E+00
DAV:  47    -0.782362404847E+03    0.78821E-03   -0.14377E-02 13076   0.675E-01    0.131E+00
DAV:  48    -0.782360209888E+03    0.21950E-02   -0.37345E-03  8252   0.194E-01    0.110E+00
DAV:  49    -0.782359535347E+03    0.67454E-03   -0.13597E-03  7580   0.175E-01    0.103E+00
DAV:  50    -0.782357962983E+03    0.15724E-02   -0.27992E-03  8444   0.297E-01    0.868E-01
DAV:  51    -0.782358304210E+03   -0.34123E-03   -0.53000E-03  8236   0.421E-01    0.911E-01
DAV:  52    -0.782359547977E+03   -0.12438E-02   -0.73173E-03  9116   0.504E-01    0.100E+00
DAV:  53    -0.782356677000E+03    0.28710E-02   -0.51863E-03  8156   0.408E-01    0.579E-01
DAV:  54    -0.782355862085E+03    0.81492E-03   -0.13625E-03  7828   0.192E-01    0.390E-01
DAV:  55    -0.782355655831E+03    0.20625E-03   -0.59652E-04  7956   0.150E-01    0.346E-01
DAV:  56    -0.782355585311E+03    0.70520E-04   -0.78812E-04  7996   0.161E-01    0.336E-01
DAV:  57    -0.782355807015E+03   -0.22170E-03   -0.13875E-03  7932   0.208E-01    0.440E-01
DAV:  58    -0.782355486280E+03    0.32073E-03   -0.12141E-03  7900   0.192E-01    0.329E-01
DAV:  59    -0.782355220233E+03    0.26605E-03   -0.81033E-04  7916   0.140E-01    0.180E-01
DAV:  60    -0.782355196936E+03    0.23297E-04   -0.29427E-04  7940   0.877E-02
 -----------------------------------------------------------------------------
|                                                                             |
|           W    W    AA    RRRRR   N    N  II  N    N   GGGG   !!!           |
|           W    W   A  A   R    R  NN   N  II  NN   N  G    G  !!!           |
|           W    W  A    A  R    R  N N  N  II  N N  N  G       !!!           |
|           W WW W  AAAAAA  RRRRR   N  N N  II  N  N N  G  GGG   !            |
|           WW  WW  A    A  R   R   N   NN  II  N   NN  G    G                |
|           W    W  A    A  R    R  N    N  II  N    N   GGGG   !!!           |
|                                                                             |
|     The electronic self-consistency was not achieved in the given           |
|     number of steps (NELM). The forces and other quantities evaluated       |
[...]
DAV:  11    -0.108655152066E+04   -0.11991E+00   -0.32701E+00  8500   0.110E+01    0.204E+01
DAV:  12    -0.108568855335E+04    0.86297E+00   -0.25099E+00  8532   0.864E+00    0.144E+01
DAV:  13    -0.108526874138E+04    0.41981E+00   -0.11278E+00  8580   0.586E+00    0.121E+01
DAV:  14    -0.108519756414E+04    0.71177E-01   -0.65872E-01  7932   0.453E+00    0.106E+01
DAV:  15    -0.108505132104E+04    0.14624E+00   -0.64659E-01  8228   0.373E+00    0.908E+00
DAV:  16    -0.108502552118E+04    0.25800E-01   -0.49354E-01  8236   0.348E+00    0.811E+00
DAV:  17    -0.108505095773E+04   -0.25437E-01   -0.33871E-01  8204   0.330E+00    0.970E+00
DAV:  18    -0.108496897042E+04    0.81987E-01   -0.37359E-01  8180   0.243E+00    0.768E+00
DAV:  19    -0.108486323934E+04    0.10573E+00   -0.20909E-01  8356   0.191E+00    0.580E+00
DAV:  20    -0.108481509888E+04    0.48140E-01   -0.15462E-01  7956   0.172E+00    0.447E+00
DAV:  21    -0.108478313762E+04    0.31961E-01   -0.12944E-01  8428   0.161E+00    0.355E+00
DAV:  22    -0.108476778185E+04    0.15356E-01   -0.62488E-02  8460   0.139E+00    0.282E+00
DAV:  23    -0.108474645537E+04    0.21326E-01   -0.38141E-02  8252   0.116E+00    0.189E+00
DAV:  24    -0.108474119083E+04    0.52645E-02   -0.27436E-02  8428   0.923E-01    0.165E+00
DAV:  25    -0.108473701207E+04    0.41788E-02   -0.13154E-02  8484   0.616E-01    0.138E+00
DAV:  26    -0.108473572369E+04    0.12884E-02   -0.10265E-02  8468   0.530E-01    0.129E+00
DAV:  27    -0.108473642183E+04   -0.69814E-03   -0.82447E-03  8428   0.506E-01    0.122E+00
DAV:  28    -0.108473558367E+04    0.83816E-03   -0.11573E-02  8588   0.568E-01    0.116E+00
DAV:  29    -0.108473389204E+04    0.16916E-02   -0.62110E-03  8332   0.480E-01    0.885E-01
DAV:  30    -0.108473206600E+04    0.18260E-02   -0.38405E-03  8332   0.356E-01    0.572E-01
DAV:  31    -0.108473111563E+04    0.95037E-03   -0.20694E-03  8324   0.243E-01    0.338E-01
DAV:  32    -0.108473112752E+04   -0.11884E-04   -0.14041E-03  8884   0.171E-01    0.337E-01
DAV:  33    -0.108473099892E+04    0.12860E-03   -0.85756E-04  8724   0.146E-01    0.290E-01
DAV:  34    -0.108473094699E+04    0.51935E-04   -0.50829E-04  8604   0.111E-01    0.242E-01
DAV:  35    -0.108473094412E+04    0.28698E-05   -0.53627E-04  8132   0.108E-01    0.203E-01
DAV:  36    -0.108473090779E+04    0.36330E-04   -0.30658E-04  8060   0.949E-02    0.165E-01
DAV:  37    -0.108473091370E+04   -0.59087E-05   -0.21762E-04  7996   0.677E-02    0.164E-01
DAV:  38    -0.108473087907E+04    0.34625E-04   -0.13740E-04  7860   0.553E-02    0.114E-01
DAV:  39    -0.108473086748E+04    0.11595E-04   -0.86868E-05  7348   0.445E-02    0.922E-02
DAV:  40    -0.108473085576E+04    0.11717E-04   -0.57639E-05  6684   0.317E-02    0.634E-02
DAV:  41    -0.108473085534E+04    0.41898E-06   -0.36618E-05  6444   0.230E-02
  37 F= -.11552369E+04 E0= -.11550590E+04  d E =-.276157E+02
 curvature:  -2.00 expect dE=-0.616E+02 dE for cont linesearch -0.185E+00
 trial: gam= 0.31729 g(F)=  0.308E+02 g(S)=  0.000E+00 ort = 0.458E+01 (trialstep = 0.832E+00)
 search vector abs. value=  0.565E+02
 bond charge predicted
       N       E                     dE             d eps       ncg     rms          rms(c)
DAV:   1    -0.108585173533E+04   -0.11209E+01   -0.65565E+03  7218   0.105E+02    0.291E+01
DAV:   2    -0.118952505632E+04   -0.10367E+03   -0.19067E+02  7796   0.498E+01    0.149E+02
DAV:   3    -0.113885961018E+04    0.50665E+02   -0.93814E+01  7516   0.558E+01    0.858E+01
DAV:   4    -0.113645778973E+04    0.24018E+01   -0.38884E+01  7612   0.501E+01    0.833E+01
DAV:   5    -0.114896007695E+04   -0.12502E+02   -0.42093E+01  8196   0.444E+01    0.877E+01
DAV:   6    -0.114882711046E+04    0.13297E+00   -0.26048E+01  7676   0.414E+01    0.107E+02
DAV:   7    -0.112096150172E+04    0.27866E+02   -0.18102E+01  7668   0.287E+01    0.489E+01
DAV:   8    -0.111008536502E+04    0.10876E+02   -0.11406E+01  7740   0.237E+01    0.321E+01
DAV:   9    -0.111262284245E+04   -0.25375E+01   -0.10749E+01  8124   0.197E+01    0.408E+01
DAV:  10    -0.111085618209E+04    0.17667E+01   -0.15820E+01  8196   0.176E+01    0.288E+01
DAV:  11    -0.110882719788E+04    0.20290E+01   -0.53079E+00  7924   0.136E+01    0.247E+01
DAV:  12    -0.110857085265E+04    0.25635E+00   -0.32390E+00  7956   0.110E+01    0.241E+01
DAV:  13    -0.110949622522E+04   -0.92537E+00   -0.35464E+00  7956   0.107E+01    0.250E+01
DAV:  14    -0.110896212336E+04    0.53410E+00   -0.38460E+00  7972   0.104E+01    0.237E+01
DAV:  15    -0.110838610237E+04    0.57602E+00   -0.21050E+00  7988   0.103E+01    0.212E+01
DAV:  16    -0.110765729153E+04    0.72881E+00   -0.21257E+00  7948   0.867E+00    0.169E+01
DAV:  17    -0.110693647205E+04    0.72082E+00   -0.14868E+00  8292   0.713E+00    0.115E+01
DAV:  18    -0.110656660306E+04    0.36987E+00   -0.91142E-01  8204   0.490E+00    0.668E+00
DAV:  19    -0.110646623610E+04    0.10037E+00   -0.30444E-01  8156   0.255E+00    0.514E+00
DAV:  20    -0.110646844017E+04   -0.22041E-02   -0.19816E-01  8268   0.218E+00    0.547E+00
DAV:  21    -0.110644417963E+04    0.24261E-01   -0.12282E-01  8132   0.152E+00    0.444E+00
DAV:  22    -0.110648076761E+04   -0.36588E-01   -0.12240E-01  8212   0.182E+00    0.554E+00
DAV:  23    -0.110646412645E+04    0.16641E-01   -0.12902E-01  8404   0.212E+00    0.466E+00
DAV:  24    -0.110644263818E+04    0.21488E-01   -0.10337E-01  8308   0.190E+00    0.424E+00
DAV:  25    -0.110640888591E+04    0.33752E-01   -0.87801E-02  8220   0.169E+00    0.296E+00
DAV:  26    -0.110639233921E+04    0.16547E-01   -0.49016E-02  8252   0.114E+00    0.239E+00
DAV:  27    -0.110637916888E+04    0.13170E-01   -0.27040E-02  8396   0.843E-01    0.142E+00
DAV:  28    -0.110637526220E+04    0.39067E-02   -0.15596E-02  8252   0.567E-01    0.116E+00
DAV:  29    -0.110637264714E+04    0.26151E-02   -0.82308E-03  8396   0.379E-01    0.765E-01
DAV:  30    -0.110637255168E+04    0.95461E-04   -0.49343E-03  9268   0.254E-01    0.699E-01
DAV:  31    -0.110637257397E+04   -0.22285E-04   -0.26839E-03  8500   0.244E-01    0.626E-01
DAV:  32    -0.110637324588E+04   -0.67192E-03   -0.32178E-03  8564   0.318E-01    0.696E-01
DAV:  33    -0.110637277399E+04    0.47189E-03   -0.25755E-03  8644   0.286E-01    0.576E-01
DAV:  34    -0.110637248183E+04    0.29216E-03   -0.20559E-03  8844   0.261E-01    0.515E-01
DAV:  35    -0.110637192699E+04    0.55484E-03   -0.14227E-03  8796   0.199E-01    0.339E-01
DAV:  36    -0.110637177438E+04    0.15261E-03   -0.77499E-04  8900   0.139E-01    0.262E-01
DAV:  37    -0.110637169047E+04    0.83904E-04   -0.55719E-04  8636   0.108E-01    0.225E-01
DAV:  38    -0.110637159127E+04    0.99205E-04   -0.30270E-04  8260   0.785E-02    0.144E-01
DAV:  39    -0.110637158035E+04    0.10920E-04   -0.18831E-04  8268   0.530E-02    0.123E-01
DAV:  40    -0.110637158290E+04   -0.25524E-05   -0.95354E-05  7460   0.454E-02    0.105E-01
DAV:  41    -0.110637157908E+04    0.38192E-05   -0.61851E-05  6860   0.392E-02    0.853E-02
DAV:  42    -0.110637159034E+04   -0.11262E-04   -0.51396E-05  6788   0.356E-02    0.859E-02
DAV:  43    -0.110637159073E+04   -0.38941E-06   -0.42661E-05  6612   0.357E-02
  38 F= -.11765542E+04 E0= -.11763792E+04  d E =-.213173E+02
 trial-energy change:  -21.317300  1 .order  -21.382058  -26.884412  -15.879705
 step:   2.1542(harm=  2.0334)  dis= 0.29250  next Energy= -1188.904156 (dE=-0.337E+02)
 bond charge predicted
       N       E                     dE             d eps       ncg     rms          rms(c)
DAV:   1    -0.103895622985E+04    0.67415E+02   -0.16860E+04  7218   0.178E+02    0.715E+01
DAV:   2    -0.127672227972E+04   -0.23777E+03   -0.83331E+02  7652   0.873E+01    0.211E+02
DAV:   3    -0.132946967447E+04   -0.52747E+02   -0.25000E+02  7612   0.108E+02    0.178E+02
DAV:   4    -0.142139113773E+04   -0.91921E+02   -0.14274E+02  7724   0.128E+02    0.204E+02
DAV:   5    -0.127506345096E+04    0.14633E+03   -0.12324E+02  7964   0.863E+01    0.154E+02
DAV:   6    -0.125248044285E+04    0.22583E+02   -0.89201E+01  7620   0.670E+01    0.139E+02
DAV:   7    -0.127451330191E+04   -0.22033E+02   -0.61551E+01  7540   0.770E+01    0.145E+02
DAV:   8    -0.120857750474E+04    0.65936E+02   -0.50221E+01  7540   0.706E+01    0.132E+02
DAV:   9    -0.115746866602E+04    0.51109E+02   -0.47827E+01  7564   0.413E+01    0.855E+01
DAV:  10    -0.114743798000E+04    0.10031E+02   -0.36014E+01  8068   0.388E+01    0.764E+01
DAV:  11    -0.113297923076E+04    0.14459E+02   -0.27374E+01  7948   0.310E+01    0.547E+01
DAV:  12    -0.112585278799E+04    0.71264E+01   -0.13476E+01  7868   0.216E+01    0.426E+01
DAV:  13    -0.112355409277E+04    0.22987E+01   -0.10393E+01  8412   0.164E+01    0.403E+01
DAV:  14    -0.112170269384E+04    0.18514E+01   -0.59967E+00  7972   0.129E+01    0.323E+01
DAV:  15    -0.112068584196E+04    0.10169E+01   -0.48502E+00  7764   0.117E+01    0.292E+01
DAV:  16    -0.112093196920E+04   -0.24613E+00   -0.47533E+00  8913   0.120E+01    0.302E+01
DAV:  17    -0.112036070895E+04    0.57126E+00   -0.44684E+00  8500   0.122E+01    0.257E+01
DAV:  18    -0.112020773210E+04    0.15298E+00   -0.41458E+00  8428   0.121E+01    0.261E+01
DAV:  19    -0.112277502169E+04   -0.25673E+01   -0.46747E+00  8884   0.123E+01    0.441E+01
DAV:  20    -0.112183897291E+04    0.93605E+00   -0.30611E+00  9196   0.891E+00    0.334E+01
DAV:  21    -0.112067731400E+04    0.11617E+01   -0.47425E+00  8964   0.123E+01    0.256E+01
DAV:  22    -0.112339753844E+04   -0.27202E+01   -0.50659E+00  9108   0.137E+01    0.408E+01
DAV:  23    -0.112068541468E+04    0.27121E+01   -0.37608E+00  9028   0.969E+00    0.242E+01
DAV:  24    -0.111924651678E+04    0.14389E+01   -0.21717E+00  8684   0.709E+00    0.163E+01
DAV:  25    -0.111912577929E+04    0.12074E+00   -0.12950E+00  8748   0.596E+00    0.209E+01
DAV:  26    -0.111859411812E+04    0.53166E+00   -0.16320E+00  8676   0.414E+00    0.107E+01
DAV:  27    -0.111844350538E+04    0.15061E+00   -0.69314E-01  8964   0.403E+00    0.994E+00
DAV:  28    -0.111832070417E+04    0.12280E+00   -0.38005E-01  8956   0.310E+00    0.810E+00
DAV:  29    -0.111824418144E+04    0.76523E-01   -0.26639E-01  8932   0.243E+00    0.717E+00
DAV:  30    -0.111816145049E+04    0.82731E-01   -0.16557E-01  8876   0.198E+00    0.573E+00
DAV:  31    -0.111812779315E+04    0.33657E-01   -0.15613E-01  8788   0.186E+00    0.477E+00
DAV:  32    -0.111808366388E+04    0.44129E-01   -0.86966E-02  9212   0.162E+00    0.391E+00
DAV:  33    -0.111806962569E+04    0.14038E-01   -0.81161E-02  8724   0.156E+00    0.345E+00
DAV:  34    -0.111804527336E+04    0.24352E-01   -0.46368E-02  8172   0.112E+00    0.251E+00
DAV:  35    -0.111803912790E+04    0.61455E-02   -0.27832E-02  8268   0.911E-01    0.230E+00
DAV:  36    -0.111803741262E+04    0.17153E-02   -0.23546E-02  8140   0.846E-01    0.224E+00
DAV:  37    -0.111802936227E+04    0.80504E-02   -0.16537E-02  8180   0.720E-01    0.167E+00
DAV:  38    -0.111802860102E+04    0.76125E-03   -0.12043E-02  8164   0.658E-01    0.161E+00
DAV:  39    -0.111802394807E+04    0.46529E-02   -0.11525E-02  8468   0.592E-01    0.122E+00
DAV:  40    -0.111802208467E+04    0.18634E-02   -0.75228E-03  8532   0.466E-01    0.106E+00
DAV:  41    -0.111802127928E+04    0.80538E-03   -0.47471E-03  8476   0.334E-01    0.954E-01
DAV:  42    -0.111802085258E+04    0.42671E-03   -0.30030E-03  8188   0.251E-01    0.878E-01
DAV:  43    -0.111802052422E+04    0.32836E-03   -0.24561E-03  8076   0.216E-01    0.820E-01
DAV:  44    -0.111802053459E+04   -0.10366E-04   -0.19566E-03  8188   0.229E-01    0.814E-01
DAV:  45    -0.111801981445E+04    0.72013E-03   -0.18569E-03  8212   0.231E-01    0.645E-01
DAV:  46    -0.111801905945E+04    0.75500E-03   -0.13035E-03  8316   0.198E-01    0.422E-01
DAV:  47    -0.111802002703E+04   -0.96758E-03   -0.33212E-03  8964   0.274E-01    0.668E-01
DAV:  48    -0.111801935753E+04    0.66950E-03   -0.11467E-03  8804   0.191E-01    0.538E-01
DAV:  49    -0.111801909732E+04    0.26022E-03   -0.57550E-04  8340   0.129E-01    0.462E-01
DAV:  50    -0.111801885727E+04    0.24005E-03   -0.56116E-04  8476   0.127E-01    0.348E-01
DAV:  51    -0.111801886374E+04   -0.64671E-05   -0.47611E-04  8404   0.132E-01    0.309E-01
DAV:  52    -0.111801903501E+04   -0.17127E-03   -0.74283E-04  8500   0.171E-01    0.393E-01
DAV:  53    -0.111801875269E+04    0.28231E-03   -0.41798E-04  8340   0.128E-01    0.279E-01
DAV:  54    -0.111801865487E+04    0.97825E-04   -0.20384E-04  7892   0.913E-02    0.227E-01
DAV:  55    -0.111801863210E+04    0.22766E-04   -0.13361E-04  7724   0.764E-02    0.204E-01
DAV:  56    -0.111801854538E+04    0.86724E-04   -0.12184E-04  7556   0.608E-02    0.128E-01
DAV:  57    -0.111801858498E+04   -0.39604E-04   -0.11257E-04  7564   0.676E-02    0.157E-01
DAV:  58    -0.111801852356E+04    0.61420E-04   -0.10398E-04  7108   0.572E-02    0.936E-02
DAV:  59    -0.111801851042E+04    0.13143E-04   -0.34279E-05  6364   0.349E-02    0.753E-02
DAV:  60    -0.111801849742E+04    0.13004E-04   -0.26798E-05  5700   0.276E-02
 -----------------------------------------------------------------------------
|                                                                             |
|           W    W    AA    RRRRR   N    N  II  N    N   GGGG   !!!           |
|           W    W   A  A   R    R  NN   N  II  NN   N  G    G  !!!           |
|           W    W  A    A  R    R  N N  N  II  N N  N  G       !!!           |
|           W WW W  AAAAAA  RRRRR   N  N N  II  N  N N  G  GGG   !            |
|           WW  WW  A    A  R   R   N   NN  II  N   NN  G    G                |
|           W    W  A    A  R    R  N    N  II  N    N   GGGG   !!!           |
|                                                                             |
|     The electronic self-consistency was not achieved in the given           |
|     number of steps (NELM). The forces and other quantities evaluated       |
|     might not be reliable so examine the results carefully. If you find     |
|     spurious results, we suggest increasing NELM, if you were close to      |
|     convergence or switching to a different ALGO or adjusting the           |
|     density mixing parameters otherwise.                                    |
|                                                                             |
 -----------------------------------------------------------------------------

  39 F= -.11876932E+04 E0= -.11875186E+04  d E =-.324563E+02
 curvature:  -1.76 expect dE=-0.563E+02 dE for cont linesearch -0.253E+00
 trial: gam= 1.12707 g(F)=  0.320E+02 g(S)=  0.000E+00 ort =-0.285E+01 (trialstep = 0.637E+00)
 search vector abs. value=  0.973E+02
 bond charge predicted
       N       E                     dE             d eps       ncg     rms          rms(c)
DAV:   1    -0.111231256703E+04    0.57059E+01   -0.64650E+03  7218   0.105E+02    0.401E+01
DAV:   2    -0.122470246780E+04   -0.11239E+03   -0.19142E+02  7748   0.521E+01    0.159E+02
DAV:   3    -0.118997250939E+04    0.34730E+02   -0.10704E+02  7556   0.621E+01    0.106E+02
DAV:   4    -0.117785312413E+04    0.12119E+02   -0.52510E+01  7564   0.624E+01    0.982E+01
DAV:   5    -0.121113000050E+04   -0.33277E+02   -0.55245E+01  8148   0.559E+01    0.137E+02
DAV:   6    -0.122786743435E+04   -0.16737E+02   -0.40683E+01  8028   0.539E+01    0.130E+02
DAV:   7    -0.116184749869E+04    0.66020E+02   -0.27979E+01  7524   0.486E+01    0.801E+01
DAV:   8    -0.114708177306E+04    0.14766E+02   -0.30275E+01  7628   0.314E+01    0.547E+01
DAV:   9    -0.115389192946E+04   -0.68102E+01   -0.26371E+01  7804   0.264E+01    0.730E+01
DAV:  10    -0.114127465635E+04    0.12617E+02   -0.17490E+01  8652   0.202E+01    0.401E+01
DAV:  11    -0.113927174859E+04    0.20029E+01   -0.11444E+01  8756   0.213E+01    0.389E+01
DAV:  12    -0.113833295086E+04    0.93880E+00   -0.66070E+00  8276   0.169E+01    0.318E+01
DAV:  13    -0.113721843262E+04    0.11145E+01   -0.37739E+00  8180   0.118E+01    0.309E+01
DAV:  14    -0.113606009915E+04    0.11583E+01   -0.33088E+00  8468   0.106E+01    0.264E+01
DAV:  15    -0.113482808476E+04    0.12320E+01   -0.24773E+00  8580   0.909E+00    0.221E+01
DAV:  16    -0.113494642703E+04   -0.11834E+00   -0.25161E+00  7836   0.954E+00    0.221E+01
DAV:  17    -0.113414806423E+04    0.79836E+00   -0.22282E+00  8324   0.879E+00    0.214E+01
DAV:  18    -0.113409221107E+04    0.55853E-01   -0.19182E+00  8316   0.776E+00    0.197E+01
DAV:  19    -0.113318613207E+04    0.90608E+00   -0.17284E+00  8364   0.736E+00    0.149E+01
DAV:  20    -0.113291575408E+04    0.27038E+00   -0.13647E+00  8500   0.643E+00    0.125E+01
DAV:  21    -0.113266337093E+04    0.25238E+00   -0.10794E+00  8556   0.539E+00    0.111E+01
DAV:  22    -0.113237924965E+04    0.28412E+00   -0.66208E-01  8452   0.397E+00    0.775E+00
DAV:  23    -0.113235143655E+04    0.27813E-01   -0.45351E-01  8980   0.304E+00    0.785E+00
DAV:  24    -0.113226405331E+04    0.87383E-01   -0.32300E-01  8956   0.259E+00    0.653E+00
DAV:  25    -0.113231027239E+04   -0.46219E-01   -0.23597E-01  8612   0.272E+00    0.729E+00
DAV:  26    -0.113228238511E+04    0.27887E-01   -0.23492E-01  8548   0.301E+00    0.645E+00
DAV:  27    -0.113221045293E+04    0.71932E-01   -0.16649E-01  8452   0.245E+00    0.486E+00
DAV:  28    -0.113216940056E+04    0.41052E-01   -0.11388E-01  8652   0.194E+00    0.384E+00
DAV:  29    -0.113213813361E+04    0.31267E-01   -0.57410E-02  8556   0.131E+00    0.271E+00
DAV:  30    -0.113212746409E+04    0.10670E-01   -0.24558E-02  8524   0.747E-01    0.219E+00
DAV:  31    -0.113212851425E+04   -0.10502E-02   -0.16438E-02  8652   0.606E-01    0.224E+00
DAV:  32    -0.113212812180E+04    0.39245E-03   -0.15124E-02  8676   0.618E-01    0.219E+00
DAV:  33    -0.113212481787E+04    0.33039E-02   -0.96483E-03  8676   0.539E-01    0.196E+00
DAV:  34    -0.113212087577E+04    0.39421E-02   -0.87946E-03  8436   0.491E-01    0.167E+00
DAV:  35    -0.113211648606E+04    0.43897E-02   -0.58763E-03  8716   0.403E-01    0.135E+00
DAV:  36    -0.113211450218E+04    0.19839E-02   -0.49148E-03  8900   0.391E-01    0.119E+00
DAV:  37    -0.113211240388E+04    0.20983E-02   -0.39836E-03  8828   0.340E-01    0.917E-01
DAV:  38    -0.113211154266E+04    0.86121E-03   -0.19436E-03  8332   0.223E-01    0.844E-01
DAV:  39    -0.113211091606E+04    0.62660E-03   -0.13698E-03  8436   0.181E-01    0.749E-01
DAV:  40    -0.113211065685E+04    0.25922E-03   -0.81899E-04  9596   0.919E-02    0.704E-01
DAV:  41    -0.113211050719E+04    0.14965E-03   -0.39288E-04  8404   0.895E-02    0.690E-01
DAV:  42    -0.113211021550E+04    0.29169E-03   -0.32491E-04  8340   0.973E-02    0.631E-01
DAV:  43    -0.113210952101E+04    0.69449E-03   -0.38708E-04  9108   0.118E-01    0.492E-01
DAV:  44    -0.113210908329E+04    0.43772E-03   -0.46590E-04  9500   0.116E-01    0.378E-01
DAV:  45    -0.113210877263E+04    0.31066E-03   -0.36612E-04  9660   0.925E-02    0.269E-01
DAV:  46    -0.113210870207E+04    0.70561E-04   -0.29173E-04  9292   0.824E-02    0.230E-01
DAV:  47    -0.113210865663E+04    0.45439E-04   -0.39638E-04 10396   0.934E-02    0.211E-01
DAV:  48    -0.113210860723E+04    0.49401E-04   -0.25478E-04  9348   0.737E-02    0.158E-01
DAV:  49    -0.113210856824E+04    0.38986E-04   -0.14045E-04  8100   0.584E-02    0.109E-01
DAV:  50    -0.113210855995E+04    0.82951E-05   -0.75557E-05  7316   0.442E-02    0.927E-02
DAV:  51    -0.113210854739E+04    0.12558E-04   -0.57627E-05  6628   0.387E-02    0.676E-02
DAV:  52    -0.113210855208E+04   -0.46960E-05   -0.44788E-05  6492   0.394E-02
  40 F= -.12014500E+04 E0= -.12012755E+04  d E =-.137569E+02
 trial-energy change:  -13.756856  1 .order  -13.561903  -18.313709   -8.810097
 step:   1.1217(harm=  1.2269)  dis= 0.21428  next Energy= -1204.892100 (dE=-0.172E+02)
