<?xml version="1.0" encoding="ISO-8859-1"?>
<modeling>
 <generator>
  <i name="program" type="string">vasp </i>
  <i name="version" type="string">6.2.1  </i>
  <i name="subversion" type="string">16May21 (build May 12 2022 08:28:04) complex                          parallel </i>
  <i name="platform" type="string">LinuxPGI </i>
  <i name="date" type="string">2022 07 22 </i>
  <i name="time" type="string">11:51:47 </i>
 </generator>
 <incar>
  <i type="string" name="SYSTEM">NiAl</i>
  <i type="int" name="ISTART">     0</i>
  <i type="int" name="NELM">   120</i>
  <i type="int" name="NELMIN">     6</i>
  <i type="int" name="IBRION">     2</i>
  <i name="EDIFF">      0.00000500</i>
  <i type="int" name="NSW">    40</i>
  <i type="int" name="ISIF">     0</i>
  <i name="ENCUT">    360.00000000</i>
  <i name="POTIM">      0.20000000</i>
  <i type="string" name="LREAL">Auto</i>
  <i type="logical" name="LPLANE"> T  </i>
  <i type="int" name="ISMEAR">     0</i>
  <i name="SIGMA">      0.05000000</i>
  <i type="logical" name="LWAVE"> F  </i>
  <i type="logical" name="LCHARG"> F  </i>
  <i type="int" name="IVDW">    12</i>
 </incar>
 <primitive_cell>
  <structure name="primitive_cell" >
   <crystal>
    <varray name="basis" >
     <v>      10.54150009       0.00000000       0.00000000 </v>
     <v>       5.27075005       9.12920687       0.00000000 </v>
     <v>       0.00000000       0.00000000      28.54150009 </v>
    </varray>
    <i name="volume">   2746.70653362 </i>
    <varray name="rec_basis" >
     <v>       0.09486316      -0.05476927       0.00000000 </v>
     <v>       0.00000000       0.10953854       0.00000000 </v>
     <v>       0.00000000       0.00000000       0.03503670 </v>
    </varray>
   </crystal>
   <varray name="positions" >
    <v>       0.00000000       0.00000000       0.00000000 </v>
    <v>       0.00000000       0.00000000       0.07386788 </v>
    <v>       0.00000000       0.00000000       0.14773576 </v>
    <v>       0.00000000       0.00000000       0.22160364 </v>
    <v>       0.00000000       0.00000000       0.29547151 </v>
    <v>       1.00000000       0.20000000       0.00000000 </v>
    <v>       1.00000000       0.20000000       0.07386788 </v>
    <v>       1.00000000       0.20000000       0.14773576 </v>
    <v>       1.00000000       0.20000000       0.22160364 </v>
    <v>       1.00000000       0.20000000       0.29547151 </v>
    <v>       1.00000000       0.40000001       0.00000000 </v>
    <v>       1.00000000       0.40000001       0.07386788 </v>
    <v>       1.00000000       0.40000001       0.14773576 </v>
    <v>       1.00000000       0.40000001       0.22160364 </v>
    <v>       1.00000000       0.40000001       0.29547151 </v>
    <v>       1.00000000       0.60000002       0.00000000 </v>
    <v>       1.00000000       0.60000002       0.07386788 </v>
    <v>       1.00000000       0.60000002       0.14773576 </v>
    <v>       1.00000000       0.60000002       0.22160364 </v>
    <v>       1.00000000       0.60000002       0.29547151 </v>
    <v>       1.00000000       0.80000001       0.00000000 </v>
    <v>       1.00000000       0.80000001       0.07386788 </v>
    <v>       1.00000000       0.80000001       0.14773576 </v>
    <v>       1.00000000       0.80000001       0.22160364 </v>
    <v>       1.00000000       0.80000001       0.29547151 </v>
    <v>       0.20000000       0.00000000       0.00000000 </v>
    <v>       0.20000000       0.00000000       0.07386788 </v>
    <v>       0.20000000       0.00000000       0.14773576 </v>
    <v>       0.20000000       0.00000000       0.22160364 </v>
    <v>       0.20000000       0.00000000       0.29547151 </v>
    <v>       0.20000000       0.20000000       0.00000000 </v>
    <v>       0.20000000       0.20000000       0.07386788 </v>
    <v>       0.20000000       0.20000000       0.14773576 </v>
    <v>       0.20000000       0.20000000       0.22160364 </v>
    <v>       0.20000000       0.20000000       0.29547151 </v>
    <v>       0.20000000       0.40000001       0.00000000 </v>
    <v>       0.20000000       0.40000001       0.07386788 </v>
    <v>       0.20000000       0.40000001       0.14773576 </v>
    <v>       0.20000000       0.40000001       0.22160364 </v>
    <v>       0.20000000       0.40000001       0.29547151 </v>
    <v>       0.20000000       0.60000002       0.00000000 </v>
    <v>       0.20000000       0.60000002       0.07386788 </v>
    <v>       0.20000000       0.60000002       0.14773576 </v>
    <v>       0.20000000       0.60000002       0.22160364 </v>
    <v>       0.20000000       0.60000002       0.29547151 </v>
    <v>       0.20000000       0.80000001       0.00000000 </v>
    <v>       0.20000000       0.80000001       0.07386788 </v>
    <v>       0.20000000       0.80000001       0.14773576 </v>
    <v>       0.20000000       0.80000001       0.22160364 </v>
    <v>       0.20000000       0.80000001       0.29547151 </v>
    <v>       0.40000001       0.00000000       0.00000000 </v>
    <v>       0.40000001       0.00000000       0.07386788 </v>
    <v>       0.40000001       0.00000000       0.14773576 </v>
    <v>       0.40000001       0.00000000       0.22160364 </v>
    <v>       0.40000001       0.00000000       0.29547151 </v>
    <v>       0.40000001       0.20000000       0.00000000 </v>
    <v>       0.40000001       0.20000000       0.07386788 </v>
    <v>       0.40000001       0.20000000       0.14773576 </v>
    <v>       0.40000001       0.20000000       0.22160364 </v>
    <v>       0.40000001       0.20000000       0.29547151 </v>
    <v>       0.40000001       0.40000001       0.00000000 </v>
    <v>       0.40000001       0.40000001       0.07386788 </v>
    <v>       0.40000001       0.40000001       0.14773576 </v>
    <v>       0.40000001       0.40000001       0.22160364 </v>
    <v>       0.40000001       0.40000001       0.29547151 </v>
    <v>       0.40000001       0.60000002       0.00000000 </v>
    <v>       0.40000001       0.60000002       0.07386788 </v>
    <v>       0.40000001       0.60000002       0.14773576 </v>
    <v>       0.40000001       0.60000002       0.22160364 </v>
    <v>       0.40000001       0.60000002       0.29547151 </v>
    <v>       0.40000001       0.80000001       0.00000000 </v>
    <v>       0.40000001       0.80000001       0.07386788 </v>
    <v>       0.40000001       0.80000001       0.14773576 </v>
    <v>       0.40000001       0.80000001       0.22160364 </v>
    <v>       0.40000001       0.80000001       0.29547151 </v>
    <v>       0.60000002       0.00000000       0.00000000 </v>
    <v>       0.60000002       0.00000000       0.07386788 </v>
    <v>       0.60000002       0.00000000       0.14773576 </v>
    <v>       0.60000002       0.00000000       0.22160364 </v>
    <v>       0.60000002       0.00000000       0.29547151 </v>
    <v>       0.60000002       0.20000000       0.00000000 </v>
    <v>       0.60000002       0.20000000       0.07386788 </v>
    <v>       0.60000002       0.20000000       0.14773576 </v>
    <v>       0.60000002       0.20000000       0.22160364 </v>
    <v>       0.60000002       0.20000000       0.29547151 </v>
    <v>       0.60000002       0.40000001       0.00000000 </v>
    <v>       0.60000002       0.40000001       0.07386788 </v>
    <v>       0.60000002       0.40000001       0.14773576 </v>
    <v>       0.60000002       0.40000001       0.22160364 </v>
    <v>       0.60000002       0.40000001       0.29547151 </v>
    <v>       0.60000002       0.60000002       0.00000000 </v>
    <v>       0.60000002       0.60000002       0.07386788 </v>
    <v>       0.60000002       0.60000002       0.14773576 </v>
    <v>       0.60000002       0.60000002       0.22160364 </v>
    <v>       0.60000002       0.60000002       0.29547151 </v>
    <v>       0.60000002       0.80000001       0.00000000 </v>
    <v>       0.60000002       0.80000001       0.07386788 </v>
    <v>       0.60000002       0.80000001       0.14773576 </v>
    <v>       0.60000002       0.80000001       0.22160364 </v>
    <v>       0.60000002       0.80000001       0.29547151 </v>
    <v>       0.80000001       0.00000000       0.00000000 </v>
    <v>       0.80000001       0.00000000       0.07386788 </v>
    <v>       0.80000001       0.00000000       0.14773576 </v>
    <v>       0.80000001       0.00000000       0.22160364 </v>
    <v>       0.80000001       0.00000000       0.29547151 </v>
    <v>       0.80000001       0.20000000       0.00000000 </v>
    <v>       0.80000001       0.20000000       0.07386788 </v>
    <v>       0.80000001       0.20000000       0.14773576 </v>
    <v>       0.80000001       0.20000000       0.22160364 </v>
    <v>       0.80000001       0.20000000       0.29547151 </v>
    <v>       0.80000001       0.40000001       0.00000000 </v>
    <v>       0.80000001       0.40000001       0.07386788 </v>
    <v>       0.80000001       0.40000001       0.14773576 </v>
    <v>       0.80000001       0.40000001       0.22160364 </v>
    <v>       0.80000001       0.40000001       0.29547151 </v>
    <v>       0.80000001       0.60000002       0.00000000 </v>
    <v>       0.80000001       0.60000002       0.07386788 </v>
    <v>       0.80000001       0.60000002       0.14773576 </v>
    <v>       0.80000001       0.60000002       0.22160364 </v>
    <v>       0.80000001       0.60000002       0.29547151 </v>
    <v>       0.80000001       0.80000001       0.00000000 </v>
    <v>       0.80000001       0.80000001       0.07386788 </v>
    <v>       0.80000001       0.80000001       0.14773576 </v>
    <v>       0.80000001       0.80000001       0.22160364 </v>
    <v>       0.80000001       0.80000001       0.29547151 </v>
    <v>       0.10000000       0.10000000       0.03693394 </v>
    <v>       0.10000000       0.10000000       0.11080182 </v>
    <v>       0.10000000       0.10000000       0.18466969 </v>
    <v>       0.10000000       0.10000000       0.25853757 </v>
    <v>       0.10000000       0.10000000       0.33240544 </v>
    <v>       0.10000000       0.30000001       0.03693394 </v>
    <v>       0.10000000       0.30000001       0.11080182 </v>
    <v>       0.10000000       0.30000001       0.18466969 </v>
    <v>       0.10000000       0.30000001       0.25853757 </v>
    <v>       0.10000000       0.30000001       0.33240544 </v>
    <v>       0.10000000       0.50000000       0.03693394 </v>
    <v>       0.10000000       0.50000000       0.11080182 </v>
    <v>       0.10000000       0.50000000       0.18466969 </v>
    <v>       0.10000000       0.50000000       0.25853757 </v>
    <v>       0.10000000       0.50000000       0.33240544 </v>
    <v>       0.10000000       0.69999999       0.03693394 </v>
    <v>       0.10000000       0.69999999       0.11080182 </v>
    <v>       0.10000000       0.69999999       0.18466969 </v>
    <v>       0.10000000       0.69999999       0.25853757 </v>
    <v>       0.10000000       0.69999999       0.33240544 </v>
    <v>       0.10000000       0.89999998       0.03693394 </v>
    <v>       0.10000000       0.89999998       0.11080182 </v>
    <v>       0.10000000       0.89999998       0.18466969 </v>
    <v>       0.10000000       0.89999998       0.25853757 </v>
    <v>       0.10000000       0.89999998       0.33240544 </v>
    <v>       0.30000001       0.10000000       0.03693394 </v>
    <v>       0.30000001       0.10000000       0.11080182 </v>
    <v>       0.30000001       0.10000000       0.18466969 </v>
    <v>       0.30000001       0.10000000       0.25853757 </v>
    <v>       0.30000001       0.10000000       0.33240544 </v>
    <v>       0.30000001       0.30000001       0.03693394 </v>
    <v>       0.30000001       0.30000001       0.11080182 </v>
    <v>       0.30000001       0.30000001       0.18466969 </v>
    <v>       0.30000001       0.30000001       0.25853757 </v>
    <v>       0.30000001       0.30000001       0.33240544 </v>
    <v>       0.30000001       0.50000000       0.03693394 </v>
    <v>       0.30000001       0.50000000       0.11080182 </v>
    <v>       0.30000001       0.50000000       0.18466969 </v>
    <v>       0.30000001       0.50000000       0.25853757 </v>
    <v>       0.30000001       0.50000000       0.33240544 </v>
    <v>       0.30000001       0.69999999       0.03693394 </v>
    <v>       0.30000001       0.69999999       0.11080182 </v>
    <v>       0.30000001       0.69999999       0.18466969 </v>
    <v>       0.30000001       0.69999999       0.25853757 </v>
    <v>       0.30000001       0.69999999       0.33240544 </v>
    <v>       0.30000001       0.89999998       0.03693394 </v>
    <v>       0.30000001       0.89999998       0.11080182 </v>
    <v>       0.30000001       0.89999998       0.18466969 </v>
    <v>       0.30000001       0.89999998       0.25853757 </v>
    <v>       0.30000001       0.89999998       0.33240544 </v>
    <v>       0.50000000       0.10000000       0.03693394 </v>
    <v>       0.50000000       0.10000000       0.11080182 </v>
    <v>       0.50000000       0.10000000       0.18466969 </v>
    <v>       0.50000000       0.10000000       0.25853757 </v>
    <v>       0.50000000       0.10000000       0.33240544 </v>
    <v>       0.50000000       0.30000001       0.03693394 </v>
    <v>       0.50000000       0.30000001       0.11080182 </v>
    <v>       0.50000000       0.30000001       0.18466969 </v>
    <v>       0.50000000       0.30000001       0.25853757 </v>
    <v>       0.50000000       0.30000001       0.33240544 </v>
    <v>       0.50000000       0.50000000       0.03693394 </v>
    <v>       0.50000000       0.50000000       0.11080182 </v>
    <v>       0.50000000       0.50000000       0.18466969 </v>
    <v>       0.50000000       0.50000000       0.25853757 </v>
    <v>       0.50000000       0.50000000       0.33240544 </v>
    <v>       0.50000000       0.69999999       0.03693394 </v>
    <v>       0.50000000       0.69999999       0.11080182 </v>
    <v>       0.50000000       0.69999999       0.18466969 </v>
    <v>       0.50000000       0.69999999       0.25853757 </v>
    <v>       0.50000000       0.69999999       0.33240544 </v>
    <v>       0.50000000       0.89999998       0.03693394 </v>
    <v>       0.50000000       0.89999998       0.11080182 </v>
    <v>       0.50000000       0.89999998       0.18466969 </v>
    <v>       0.50000000       0.89999998       0.25853757 </v>
    <v>       0.50000000       0.89999998       0.33240544 </v>
    <v>       0.69999999       0.10000000       0.03693394 </v>
    <v>       0.69999999       0.10000000       0.11080182 </v>
    <v>       0.69999999       0.10000000       0.18466969 </v>
    <v>       0.69999999       0.10000000       0.25853757 </v>
    <v>       0.69999999       0.10000000       0.33240544 </v>
    <v>       0.69999999       0.30000001       0.03693394 </v>
    <v>       0.69999999       0.30000001       0.11080182 </v>
    <v>       0.69999999       0.30000001       0.18466969 </v>
    <v>       0.69999999       0.30000001       0.25853757 </v>
    <v>       0.69999999       0.30000001       0.33240544 </v>
    <v>       0.69999999       0.50000000       0.03693394 </v>
    <v>       0.69999999       0.50000000       0.11080182 </v>
    <v>       0.69999999       0.50000000       0.18466969 </v>
    <v>       0.69999999       0.50000000       0.25853757 </v>
    <v>       0.69999999       0.50000000       0.33240544 </v>
    <v>       0.69999999       0.69999999       0.03693394 </v>
    <v>       0.69999999       0.69999999       0.11080182 </v>
    <v>       0.69999999       0.69999999       0.18466969 </v>
    <v>       0.69999999       0.69999999       0.25853757 </v>
    <v>       0.69999999       0.69999999       0.33240544 </v>
    <v>       0.69999999       0.89999998       0.03693394 </v>
    <v>       0.69999999       0.89999998       0.11080182 </v>
    <v>       0.69999999       0.89999998       0.18466969 </v>
    <v>       0.69999999       0.89999998       0.25853757 </v>
    <v>       0.69999999       0.89999998       0.33240544 </v>
    <v>       0.89999998       0.10000000       0.03693394 </v>
    <v>       0.89999998       0.10000000       0.11080182 </v>
    <v>       0.89999998       0.10000000       0.18466969 </v>
    <v>       0.89999998       0.10000000       0.25853757 </v>
    <v>       0.89999998       0.10000000       0.33240544 </v>
    <v>       0.89999998       0.30000001       0.03693394 </v>
    <v>       0.89999998       0.30000001       0.11080182 </v>
    <v>       0.89999998       0.30000001       0.18466969 </v>
    <v>       0.89999998       0.30000001       0.25853757 </v>
    <v>       0.89999998       0.30000001       0.33240544 </v>
    <v>       0.89999998       0.50000000       0.03693394 </v>
    <v>       0.89999998       0.50000000       0.11080182 </v>
    <v>       0.89999998       0.50000000       0.18466969 </v>
    <v>       0.89999998       0.50000000       0.25853757 </v>
    <v>       0.89999998       0.50000000       0.33240544 </v>
    <v>       0.89999998       0.69999999       0.03693394 </v>
    <v>       0.89999998       0.69999999       0.11080182 </v>
    <v>       0.89999998       0.69999999       0.18466969 </v>
    <v>       0.89999998       0.69999999       0.25853757 </v>
    <v>       0.89999998       0.69999999       0.33240544 </v>
    <v>       0.89999998       0.89999998       0.03693394 </v>
    <v>       0.89999998       0.89999998       0.11080182 </v>
    <v>       0.89999998       0.89999998       0.18466969 </v>
    <v>       0.89999998       0.89999998       0.25853757 </v>
    <v>       0.89999998       0.89999998       0.33240544 </v>
    <v>       0.42141986       0.42141986       0.36744214 </v>
   </varray>
  </structure>
  <varray name="primitive_index" >
   <v type="int" >        1 </v>
   <v type="int" >        2 </v>
   <v type="int" >        3 </v>
   <v type="int" >        4 </v>
   <v type="int" >        5 </v>
   <v type="int" >        6 </v>
   <v type="int" >        7 </v>
   <v type="int" >        8 </v>
   <v type="int" >        9 </v>
   <v type="int" >       10 </v>
   <v type="int" >       11 </v>
   <v type="int" >       12 </v>
   <v type="int" >       13 </v>
   <v type="int" >       14 </v>
   <v type="int" >       15 </v>
   <v type="int" >       16 </v>
   <v type="int" >       17 </v>
   <v type="int" >       18 </v>
   <v type="int" >       19 </v>
   <v type="int" >       20 </v>
   <v type="int" >       21 </v>
   <v type="int" >       22 </v>
   <v type="int" >       23 </v>
   <v type="int" >       24 </v>
   <v type="int" >       25 </v>
   <v type="int" >       26 </v>
   <v type="int" >       27 </v>
   <v type="int" >       28 </v>
   <v type="int" >       29 </v>
   <v type="int" >       30 </v>
   <v type="int" >       31 </v>
   <v type="int" >       32 </v>
   <v type="int" >       33 </v>
   <v type="int" >       34 </v>
   <v type="int" >       35 </v>
   <v type="int" >       36 </v>
   <v type="int" >       37 </v>
   <v type="int" >       38 </v>
   <v type="int" >       39 </v>
   <v type="int" >       40 </v>
   <v type="int" >       41 </v>
   <v type="int" >       42 </v>
   <v type="int" >       43 </v>
   <v type="int" >       44 </v>
   <v type="int" >       45 </v>
   <v type="int" >       46 </v>
   <v type="int" >       47 </v>
   <v type="int" >       48 </v>
   <v type="int" >       49 </v>
   <v type="int" >       50 </v>
   <v type="int" >       51 </v>
   <v type="int" >       52 </v>
   <v type="int" >       53 </v>
   <v type="int" >       54 </v>
   <v type="int" >       55 </v>
   <v type="int" >       56 </v>
   <v type="int" >       57 </v>
   <v type="int" >       58 </v>
   <v type="int" >       59 </v>
   <v type="int" >       60 </v>
   <v type="int" >       61 </v>
   <v type="int" >       62 </v>
   <v type="int" >       63 </v>
   <v type="int" >       64 </v>
   <v type="int" >       65 </v>
   <v type="int" >       66 </v>
   <v type="int" >       67 </v>
   <v type="int" >       68 </v>
   <v type="int" >       69 </v>
   <v type="int" >       70 </v>
   <v type="int" >       71 </v>
   <v type="int" >       72 </v>
   <v type="int" >       73 </v>
   <v type="int" >       74 </v>
   <v type="int" >       75 </v>
   <v type="int" >       76 </v>
   <v type="int" >       77 </v>
   <v type="int" >       78 </v>
   <v type="int" >       79 </v>
   <v type="int" >       80 </v>
   <v type="int" >       81 </v>
   <v type="int" >       82 </v>
   <v type="int" >       83 </v>
   <v type="int" >       84 </v>
   <v type="int" >       85 </v>
   <v type="int" >       86 </v>
   <v type="int" >       87 </v>
   <v type="int" >       88 </v>
   <v type="int" >       89 </v>
   <v type="int" >       90 </v>
   <v type="int" >       91 </v>
   <v type="int" >       92 </v>
   <v type="int" >       93 </v>
   <v type="int" >       94 </v>
   <v type="int" >       95 </v>
   <v type="int" >       96 </v>
   <v type="int" >       97 </v>
   <v type="int" >       98 </v>
   <v type="int" >       99 </v>
   <v type="int" >      100 </v>
   <v type="int" >      101 </v>
   <v type="int" >      102 </v>
   <v type="int" >      103 </v>
   <v type="int" >      104 </v>
   <v type="int" >      105 </v>
   <v type="int" >      106 </v>
   <v type="int" >      107 </v>
   <v type="int" >      108 </v>
   <v type="int" >      109 </v>
   <v type="int" >      110 </v>
   <v type="int" >      111 </v>
   <v type="int" >      112 </v>
   <v type="int" >      113 </v>
   <v type="int" >      114 </v>
   <v type="int" >      115 </v>
   <v type="int" >      116 </v>
   <v type="int" >      117 </v>
   <v type="int" >      118 </v>
   <v type="int" >      119 </v>
   <v type="int" >      120 </v>
   <v type="int" >      121 </v>
   <v type="int" >      122 </v>
   <v type="int" >      123 </v>
   <v type="int" >      124 </v>
   <v type="int" >      125 </v>
   <v type="int" >      126 </v>
   <v type="int" >      127 </v>
   <v type="int" >      128 </v>
   <v type="int" >      129 </v>
   <v type="int" >      130 </v>
   <v type="int" >      131 </v>
   <v type="int" >      132 </v>
   <v type="int" >      133 </v>
   <v type="int" >      134 </v>
   <v type="int" >      135 </v>
   <v type="int" >      136 </v>
   <v type="int" >      137 </v>
   <v type="int" >      138 </v>
   <v type="int" >      139 </v>
   <v type="int" >      140 </v>
   <v type="int" >      141 </v>
   <v type="int" >      142 </v>
   <v type="int" >      143 </v>
   <v type="int" >      144 </v>
   <v type="int" >      145 </v>
   <v type="int" >      146 </v>
   <v type="int" >      147 </v>
   <v type="int" >      148 </v>
   <v type="int" >      149 </v>
   <v type="int" >      150 </v>
   <v type="int" >      151 </v>
   <v type="int" >      152 </v>
   <v type="int" >      153 </v>
   <v type="int" >      154 </v>
   <v type="int" >      155 </v>
   <v type="int" >      156 </v>
   <v type="int" >      157 </v>
   <v type="int" >      158 </v>
   <v type="int" >      159 </v>
   <v type="int" >      160 </v>
   <v type="int" >      161 </v>
   <v type="int" >      162 </v>
   <v type="int" >      163 </v>
   <v type="int" >      164 </v>
   <v type="int" >      165 </v>
   <v type="int" >      166 </v>
   <v type="int" >      167 </v>
   <v type="int" >      168 </v>
   <v type="int" >      169 </v>
   <v type="int" >      170 </v>
   <v type="int" >      171 </v>
   <v type="int" >      172 </v>
   <v type="int" >      173 </v>
   <v type="int" >      174 </v>
   <v type="int" >      175 </v>
   <v type="int" >      176 </v>
   <v type="int" >      177 </v>
   <v type="int" >      178 </v>
   <v type="int" >      179 </v>
   <v type="int" >      180 </v>
   <v type="int" >      181 </v>
   <v type="int" >      182 </v>
   <v type="int" >      183 </v>
   <v type="int" >      184 </v>
   <v type="int" >      185 </v>
   <v type="int" >      186 </v>
   <v type="int" >      187 </v>
   <v type="int" >      188 </v>
   <v type="int" >      189 </v>
   <v type="int" >      190 </v>
   <v type="int" >      191 </v>
   <v type="int" >      192 </v>
   <v type="int" >      193 </v>
   <v type="int" >      194 </v>
   <v type="int" >      195 </v>
   <v type="int" >      196 </v>
   <v type="int" >      197 </v>
   <v type="int" >      198 </v>
   <v type="int" >      199 </v>
   <v type="int" >      200 </v>
   <v type="int" >      201 </v>
   <v type="int" >      202 </v>
   <v type="int" >      203 </v>
   <v type="int" >      204 </v>
   <v type="int" >      205 </v>
   <v type="int" >      206 </v>
   <v type="int" >      207 </v>
   <v type="int" >      208 </v>
   <v type="int" >      209 </v>
   <v type="int" >      210 </v>
   <v type="int" >      211 </v>
   <v type="int" >      212 </v>
   <v type="int" >      213 </v>
   <v type="int" >      214 </v>
   <v type="int" >      215 </v>
   <v type="int" >      216 </v>
   <v type="int" >      217 </v>
   <v type="int" >      218 </v>
   <v type="int" >      219 </v>
   <v type="int" >      220 </v>
   <v type="int" >      221 </v>
   <v type="int" >      222 </v>
   <v type="int" >      223 </v>
   <v type="int" >      224 </v>
   <v type="int" >      225 </v>
   <v type="int" >      226 </v>
   <v type="int" >      227 </v>
   <v type="int" >      228 </v>
   <v type="int" >      229 </v>
   <v type="int" >      230 </v>
   <v type="int" >      231 </v>
   <v type="int" >      232 </v>
   <v type="int" >      233 </v>
   <v type="int" >      234 </v>
   <v type="int" >      235 </v>
   <v type="int" >      236 </v>
   <v type="int" >      237 </v>
   <v type="int" >      238 </v>
   <v type="int" >      239 </v>
   <v type="int" >      240 </v>
   <v type="int" >      241 </v>
   <v type="int" >      242 </v>
   <v type="int" >      243 </v>
   <v type="int" >      244 </v>
   <v type="int" >      245 </v>
   <v type="int" >      246 </v>
   <v type="int" >      247 </v>
   <v type="int" >      248 </v>
   <v type="int" >      249 </v>
   <v type="int" >      250 </v>
   <v type="int" >      251 </v>
  </varray>
 </primitive_cell>
 <kpoints>
  <generation param="Gamma">
   <v type="int" name="divisions">       2        2        1 </v>
   <v name="usershift">      0.00000000       0.00000000       0.00000000 </v>
   <v name="genvec1">      0.50000000      -0.00000000       0.00000000 </v>
   <v name="genvec2">      0.00000000       0.50000000       0.00000000 </v>
   <v name="genvec3">      0.00000000       0.00000000       1.00000000 </v>
   <v name="shift">      0.00000000       0.00000000       0.00000000 </v>
  </generation>
  <varray name="kpointlist" >
   <v>       0.00000000       0.00000000       0.00000000 </v>
   <v>       0.50000000       0.00000000       0.00000000 </v>
   <v>       0.50000000       0.50000000       0.00000000 </v>
  </varray>
  <varray name="weights" >
   <v>       0.25000000 </v>
   <v>       0.50000000 </v>
   <v>       0.25000000 </v>
  </varray>
 </kpoints>
 <parameters>
  <separator name="general" >
   <i type="string" name="SYSTEM">NiAl</i>
   <i type="logical" name="LCOMPAT"> F  </i>
  </separator>
  <separator name="electronic" >
   <i type="string" name="PREC">normal</i>
   <i name="ENMAX">    360.00000000</i>
   <i name="ENAUG">   1139.60900000</i>
   <i name="EDIFF">      0.00000500</i>
   <i type="int" name="IALGO">    38</i>
   <i type="int" name="IWAVPR">    11</i>
   <i type="int" name="NBANDS">  1203</i>
   <i type="int" name="NBANDSLOW">    -1</i>
   <i type="int" name="NBANDSHIGH">    -1</i>
   <i name="NELECT">   2006.00000000</i>
   <i type="int" name="TURBO">     0</i>
   <i type="int" name="IRESTART">     0</i>
   <i type="int" name="NREBOOT">     0</i>
   <i type="int" name="NMIN">     0</i>
   <i name="EREF">      0.00000000</i>
   <separator name="electronic smearing" >
    <i type="int" name="ISMEAR">     0</i>
    <i name="SIGMA">      0.05000000</i>
    <i name="KSPACING">      0.50000000</i>
    <i type="logical" name="KGAMMA"> T  </i>
    <i type="logical" name="KBLOWUP"> T  </i>
   </separator>
   <separator name="electronic projectors" >
    <i type="logical" name="LREAL"> T  </i>
    <v name="ROPT">     -0.00050000     -0.00050000</v>
    <i type="int" name="LMAXPAW">  -100</i>
    <i type="int" name="LMAXMIX">     2</i>
    <i type="logical" name="NLSPLINE"> F  </i>
   </separator>
   <separator name="electronic startup" >
    <i type="int" name="ISTART">     0</i>
    <i type="int" name="ICHARG">     2</i>
    <i type="int" name="INIWAV">     1</i>
   </separator>
   <separator name="electronic spin" >
    <i type="int" name="ISPIN">     1</i>
    <i type="logical" name="LNONCOLLINEAR"> F  </i>
    <v name="MAGMOM">      1.00000000      1.00000000      1.00000000      1.00000000      1.00000000      1.00000000      1.00000000      1.00000000      1.00000000      1.00000000      1.00000000      1.00000000      1.00000000      1.00000000      1.00000000      1.00000000      1.00000000      1.00000000      1.00000000      1.00000000
      1.00000000      1.00000000      1.00000000      1.00000000      1.00000000      1.00000000      1.00000000      1.00000000      1.00000000      1.00000000      1.00000000      1.00000000      1.00000000      1.00000000      1.00000000      1.00000000      1.00000000      1.00000000      1.00000000      1.00000000
      1.00000000      1.00000000      1.00000000      1.00000000      1.00000000      1.00000000      1.00000000      1.00000000      1.00000000      1.00000000      1.00000000      1.00000000      1.00000000      1.00000000      1.00000000      1.00000000      1.00000000      1.00000000      1.00000000      1.00000000
      1.00000000      1.00000000      1.00000000      1.00000000      1.00000000      1.00000000      1.00000000      1.00000000      1.00000000      1.00000000      1.00000000      1.00000000      1.00000000      1.00000000      1.00000000      1.00000000      1.00000000      1.00000000      1.00000000      1.00000000
      1.00000000      1.00000000      1.00000000      1.00000000      1.00000000      1.00000000      1.00000000      1.00000000      1.00000000      1.00000000      1.00000000      1.00000000      1.00000000      1.00000000      1.00000000      1.00000000      1.00000000      1.00000000      1.00000000      1.00000000
      1.00000000      1.00000000      1.00000000      1.00000000      1.00000000      1.00000000      1.00000000      1.00000000      1.00000000      1.00000000      1.00000000      1.00000000      1.00000000      1.00000000      1.00000000      1.00000000      1.00000000      1.00000000      1.00000000      1.00000000
      1.00000000      1.00000000      1.00000000      1.00000000      1.00000000      1.00000000      1.00000000      1.00000000      1.00000000      1.00000000      1.00000000      1.00000000      1.00000000      1.00000000      1.00000000      1.00000000      1.00000000      1.00000000      1.00000000      1.00000000
      1.00000000      1.00000000      1.00000000      1.00000000      1.00000000      1.00000000      1.00000000      1.00000000      1.00000000      1.00000000      1.00000000      1.00000000      1.00000000      1.00000000      1.00000000      1.00000000      1.00000000      1.00000000      1.00000000      1.00000000
      1.00000000      1.00000000      1.00000000      1.00000000      1.00000000      1.00000000      1.00000000      1.00000000      1.00000000      1.00000000      1.00000000      1.00000000      1.00000000      1.00000000      1.00000000      1.00000000      1.00000000      1.00000000      1.00000000      1.00000000
      1.00000000      1.00000000      1.00000000      1.00000000      1.00000000      1.00000000      1.00000000      1.00000000      1.00000000      1.00000000      1.00000000      1.00000000      1.00000000      1.00000000      1.00000000      1.00000000      1.00000000      1.00000000      1.00000000      1.00000000
      1.00000000      1.00000000      1.00000000      1.00000000      1.00000000      1.00000000      1.00000000      1.00000000      1.00000000      1.00000000      1.00000000      1.00000000      1.00000000      1.00000000      1.00000000      1.00000000      1.00000000      1.00000000      1.00000000      1.00000000
      1.00000000      1.00000000      1.00000000      1.00000000      1.00000000      1.00000000      1.00000000      1.00000000      1.00000000      1.00000000      1.00000000      1.00000000      1.00000000      1.00000000      1.00000000      1.00000000      1.00000000      1.00000000      1.00000000      1.00000000
      1.00000000      1.00000000      1.00000000      1.00000000      1.00000000      1.00000000      1.00000000      1.00000000      1.00000000      1.00000000      1.00000000</v>
    <i name="NUPDOWN">     -1.00000000</i>
    <i type="logical" name="LSORBIT"> F  </i>
    <v name="SAXIS">      0.00000000      0.00000000      1.00000000</v>
    <i type="logical" name="LSPIRAL"> F  </i>
    <v name="QSPIRAL">      0.00000000      0.00000000      0.00000000</v>
    <i type="logical" name="LZEROZ"> F  </i>
   </separator>
   <separator name="electronic exchange-correlation" >
    <i type="logical" name="LASPH"> F  </i>
    <i type="logical" name="LMETAGGA"> F  </i>
   </separator>
   <separator name="electronic convergence" >
    <i type="int" name="NELM">   120</i>
    <i type="int" name="NELMDL">    -5</i>
    <i type="int" name="NELMIN">     6</i>
    <i name="ENINI">    360.00000000</i>
    <separator name="electronic convergence detail" >
     <i type="logical" name="LDIAG"> T  </i>
     <i type="logical" name="LSUBROT"> F  </i>
     <i name="WEIMIN">      0.00100000</i>
     <i name="EBREAK">      0.00000000</i>
     <i name="DEPER">      0.30000000</i>
     <i type="int" name="NRMM">     4</i>
     <i name="TIME">      0.40000000</i>
    </separator>
   </separator>
   <separator name="electronic mixer" >
    <i name="AMIX">      0.40000000</i>
    <i name="BMIX">      1.00000000</i>
    <i name="AMIN">      0.10000000</i>
    <i name="AMIX_MAG">      1.60000000</i>
    <i name="BMIX_MAG">      1.00000000</i>
    <separator name="electronic mixer details" >
     <i type="int" name="IMIX">     4</i>
     <i type="logical" name="MIXFIRST"> F  </i>
     <i type="int" name="MAXMIX">   -45</i>
     <i name="WC">    100.00000000</i>
     <i type="int" name="INIMIX">     1</i>
     <i type="int" name="MIXPRE">     1</i>
     <i type="int" name="MREMOVE">     5</i>
    </separator>
   </separator>
   <separator name="electronic dipolcorrection" >
    <i type="logical" name="LDIPOL"> F  </i>
    <i type="logical" name="LMONO"> F  </i>
    <i type="int" name="IDIPOL">     0</i>
    <i name="EPSILON">      1.00000000</i>
    <v name="DIPOL">   -100.00000000   -100.00000000   -100.00000000</v>
    <i name="EFIELD">      0.00000000</i>
   </separator>
  </separator>
  <separator name="grids" >
   <i type="int" name="NGX">    50</i>
   <i type="int" name="NGY">    50</i>
   <i type="int" name="NGZ">   140</i>
   <i type="int" name="NGXF">   100</i>
   <i type="int" name="NGYF">   100</i>
   <i type="int" name="NGZF">   280</i>
   <i type="logical" name="ADDGRID"> F  </i>
  </separator>
  <separator name="ionic" >
   <i type="int" name="NSW">    40</i>
   <i type="int" name="IBRION">     2</i>
   <i type="int" name="MDALGO">     0</i>
   <i type="int" name="ISIF">     0</i>
   <i name="PSTRESS">      0.00000000</i>
   <i name="EDIFFG">      0.00005000</i>
   <i type="int" name="NFREE">     1</i>
   <i name="POTIM">      0.20000000</i>
   <i name="SMASS">     -3.00000000</i>
   <i name="SCALEE">      1.00000000</i>
  </separator>
  <separator name="ionic md" >
   <i name="TEBEG">      0.00010000</i>
   <i name="TEEND">      0.00010000</i>
   <i type="int" name="NBLOCK">     1</i>
   <i type="int" name="KBLOCK">    40</i>
   <i type="int" name="NPACO">   256</i>
   <i name="APACO">     16.00000000</i>
  </separator>
  <separator name="symmetry" >
   <i type="int" name="ISYM">     2</i>
   <i name="SYMPREC">      0.00001000</i>
  </separator>
  <separator name="dos" >
   <i type="int" name="LORBIT">     0</i>
   <v name="RWIGS">     -1.00000000     -1.00000000</v>
   <i type="int" name="NEDOS">   301</i>
   <i name="EMIN">     10.00000000</i>
   <i name="EMAX">    -10.00000000</i>
   <i name="EFERMI">      0.00000000</i>
  </separator>
  <separator name="writing" >
   <i type="int" name="NWRITE">     2</i>
   <i type="logical" name="LWAVE"> F  </i>
   <i type="logical" name="LDOWNSAMPLE"> F  </i>
   <i type="logical" name="LCHARG"> F  </i>
   <i type="logical" name="LPARD"> F  </i>
   <i type="logical" name="LVTOT"> F  </i>
   <i type="logical" name="LVHAR"> F  </i>
   <i type="logical" name="LELF"> F  </i>
   <i type="logical" name="LOPTICS"> F  </i>
   <v name="STM">      0.00000000      0.00000000      0.00000000      0.00000000      0.00000000      0.00000000      0.00000000</v>
  </separator>
  <separator name="performance" >
   <i type="int" name="NPAR">     1</i>
   <i type="int" name="NSIM">     4</i>
   <i type="int" name="NBLK">    -1</i>
   <i type="logical" name="LPLANE"> T  </i>
   <i type="logical" name="LSCALAPACK"> T  </i>
   <i type="logical" name="LSCAAWARE"> F  </i>
   <i type="logical" name="LSCALU"> F  </i>
   <i type="logical" name="LASYNC"> F  </i>
   <i type="logical" name="LORBITALREAL"> F  </i>
  </separator>
  <separator name="miscellaneous" >
   <i type="int" name="IDIOT">     3</i>
   <i type="int" name="PHON_NSTRUCT">    -1</i>
   <i type="logical" name="LMUSIC"> F  </i>
   <v name="POMASS">     58.69000000     16.00000000</v>
   <v name="DARWINR">      0.00000000      0.00000000</v>
   <v name="DARWINV">      1.00000000      1.00000000</v>
   <i type="logical" name="LCORR"> T  </i>
  </separator>
  <i type="logical" name="GGA_COMPAT"> T  </i>
  <i type="logical" name="LBERRY"> F  </i>
  <i type="int" name="ICORELEVEL">     0</i>
  <i type="logical" name="LDAU"> F  </i>
  <i type="int" name="I_CONSTRAINED_M">     0</i>
  <separator name="electronic exchange-correlation" >
   <i type="string" name="GGA">--</i>
   <i type="int" name="VOSKOWN">     0</i>
   <i type="logical" name="LHFCALC"> F  </i>
   <i type="string" name="PRECFOCK"></i>
   <i type="logical" name="LSYMGRAD"> F  </i>
   <i type="logical" name="LHFONE"> F  </i>
   <i type="logical" name="LRHFCALC"> F  </i>
   <i type="logical" name="LTHOMAS"> F  </i>
   <i type="logical" name="LMODELHF"> F  </i>
   <i type="logical" name="LFOCKACE"> F  </i>
   <i name="ENCUT4O">     -1.00000000</i>
   <i type="int" name="EXXOEP">     0</i>
   <i type="int" name="FOURORBIT">     0</i>
   <i name="AEXX">      0.00000000</i>
   <i name="HFALPHA">      0.00000000</i>
   <i name="MCALPHA">      0.00000000</i>
   <i name="ALDAX">      1.00000000</i>
   <i name="AGGAX">      1.00000000</i>
   <i name="ALDAC">      1.00000000</i>
   <i name="AGGAC">      1.00000000</i>
   <i type="int" name="NKREDX">     1</i>
   <i type="int" name="NKREDY">     1</i>
   <i type="int" name="NKREDZ">     1</i>
   <i type="logical" name="SHIFTRED"> F  </i>
   <i type="logical" name="ODDONLY"> F  </i>
   <i type="logical" name="EVENONLY"> F  </i>
   <i type="int" name="LMAXFOCK">     0</i>
   <i type="int" name="NMAXFOCKAE">     0</i>
   <i type="logical" name="LFOCKAEDFT"> F  </i>
   <i name="HFSCREEN">      0.00000000</i>
   <i name="HFSCREENC">      0.00000000</i>
   <i type="int" name="NBANDSGWLOW">     0</i>
  </separator>
  <separator name="vdW DFT" >
   <i type="logical" name="LUSE_VDW"> F  </i>
   <i name="Zab_VDW">     -0.84910000</i>
   <i name="PARAM1">      0.12340000</i>
   <i name="PARAM2">      1.00000000</i>
   <i name="PARAM3">      0.00000000</i>
  </separator>
  <separator name="model GW" >
   <i type="int" name="MODEL_GW">     0</i>
   <i name="MODEL_EPS0">      6.56583235</i>
   <i name="MODEL_ALPHA">      1.00000000</i>
  </separator>
  <separator name="linear response parameters" >
   <i type="logical" name="LEPSILON"> F  </i>
   <i type="logical" name="LRPA"> F  </i>
   <i type="logical" name="LNABLA"> F  </i>
   <i type="logical" name="LVEL"> F  </i>
   <i type="int" name="KINTER">     0</i>
   <i name="CSHIFT">      0.10000000</i>
   <i name="OMEGAMAX">     -1.00000000</i>
   <i name="DEG_THRESHOLD">      0.00200000</i>
   <i name="RTIME">     -0.10000000</i>
   <i name="WPLASMAI">      0.00000000</i>
   <v name="DFIELD">      0.00000000      0.00000000      0.00000000</v>
   <v name="WPLASMA">      0.00000000      0.00000000      0.00000000      0.00000000      0.00000000      0.00000000      0.00000000      0.00000000      0.00000000</v>
  </separator>
  <separator name="orbital magnetization" >
   <i type="logical" name="NUCIND"> F  </i>
   <v name="MAGPOS">      0.00000000      0.00000000      0.00000000</v>
   <i type="logical" name="LNICSALL"> T  </i>
   <i type="logical" name="ORBITALMAG"> F  </i>
   <i type="logical" name="LMAGBLOCH"> F  </i>
   <i type="logical" name="LCHIMAG"> F  </i>
   <i type="logical" name="LGAUGE"> T  </i>
   <i type="int" name="MAGATOM">     0</i>
   <v name="MAGDIPOL">      0.00000000      0.00000000      0.00000000</v>
   <v name="AVECCONST">      0.00000000      0.00000000      0.00000000</v>
  </separator>
  <separator name="response functions" >
   <i type="logical" name="LFINITE_TEMPERATURE"> F  </i>
   <i type="logical" name="LADDER"> F  </i>
   <i type="logical" name="LRPAFORCE"> F  </i>
   <i type="logical" name="LFXC"> F  </i>
   <i type="logical" name="LHARTREE"> T  </i>
   <i type="int" name="IBSE">     0</i>
   <v type="int" name="KPOINT">    -1     0     0     0</v>
   <i type="logical" name="LTCTC"> F  </i>
   <i type="logical" name="LTCTE"> F  </i>
   <i type="logical" name="LTETE"> F  </i>
   <i type="logical" name="LTRIPLET"> F  </i>
   <i type="logical" name="LFXCEPS"> F  </i>
   <i type="logical" name="LFXHEG"> F  </i>
   <i type="int" name="NATURALO">     2</i>
   <i type="logical" name="LHOLEGF"> F  </i>
   <i type="logical" name="L2ORDER"> F  </i>
   <i type="logical" name="LDMP1"> F  </i>
   <i type="logical" name="LMP2LT"> F  </i>
   <i type="logical" name="LSMP2LT"> F  </i>
   <i type="logical" name="LGWLF"> F  </i>
   <i name="ENCUTGW">     -2.00000000</i>
   <i name="ENCUTGWSOFT">     -2.00000000</i>
   <i name="ENCUTLF">     -1.00000000</i>
   <i type="logical" name="LESF_SPLINES"> F  </i>
   <i type="int" name="LMAXMP2">    -1</i>
   <i name="SCISSOR">      0.00000000</i>
   <i type="int" name="NOMEGA">     0</i>
   <i type="int" name="NOMEGAR">     0</i>
   <i type="int" name="NBANDSGW">    -1</i>
   <i type="int" name="NBANDSO">    -1</i>
   <i type="int" name="NBANDSV">    -1</i>
   <i type="int" name="NELM">   120</i>
   <i type="int" name="NELMHF">     1</i>
   <i type="int" name="DIM">     3</i>
   <i type="int" name="IESPILON">     4</i>
   <i type="int" name="ANTIRES">     0</i>
   <i name="OMEGAMAX">    -30.00000000</i>
   <i name="OMEGAMIN">    -30.00000000</i>
   <i name="OMEGATL">   -200.00000000</i>
   <i type="int" name="OMEGAGRID">     0</i>
   <i name="CSHIFT">     -0.10000000</i>
   <i type="logical" name="LSELFENERGY"> F  </i>
   <i type="logical" name="LSPECTRAL"> F  </i>
   <i type="logical" name="LSPECTRALGW"> F  </i>
   <i type="logical" name="LSINGLES"> F  </i>
   <i type="logical" name="LFERMIGW"> F  </i>
   <i type="logical" name="ODDONLYGW"> F  </i>
   <i type="logical" name="EVENONLYGW"> F  </i>
   <i type="int" name="NKREDLFX">     1</i>
   <i type="int" name="NKREDLFY">     1</i>
   <i type="int" name="NKREDLFZ">     1</i>
   <i type="int" name="MAXMEM">  2800</i>
   <i type="int" name="TELESCOPE">     0</i>
   <i type="int" name="NTAUPAR">    -1</i>
   <i type="int" name="NOMEGAPAR">    -1</i>
   <i name="DAMP_NEWTON">      0.80000001</i>
   <i name="LAMBDA">      1.00000000</i>
  </separator>
  <separator name="External order field" >
   <i name="OFIELD_KAPPA">      0.00000000</i>
   <v name="OFIELD_K">      0.00000000      0.00000000      0.00000000</v>
   <i name="OFIELD_Q6_NEAR">      0.00000000</i>
   <i name="OFIELD_Q6_FAR">      0.00000000</i>
   <i name="OFIELD_A">      0.00000000</i>
  </separator>
 </parameters>
 <atominfo>
  <atoms>     251 </atoms>
  <types>       2 </types>
  <array name="atoms" >
   <dimension dim="1">ion</dimension>
   <field type="string">element</field>
   <field type="int">atomtype</field>
   <set>
    <rc><c>Ni</c><c>   1</c></rc>
    <rc><c>Ni</c><c>   1</c></rc>
    <rc><c>Ni</c><c>   1</c></rc>
    <rc><c>Ni</c><c>   1</c></rc>
    <rc><c>Ni</c><c>   1</c></rc>
    <rc><c>Ni</c><c>   1</c></rc>
    <rc><c>Ni</c><c>   1</c></rc>
    <rc><c>Ni</c><c>   1</c></rc>
    <rc><c>Ni</c><c>   1</c></rc>
    <rc><c>Ni</c><c>   1</c></rc>
    <rc><c>Ni</c><c>   1</c></rc>
    <rc><c>Ni</c><c>   1</c></rc>
    <rc><c>Ni</c><c>   1</c></rc>
    <rc><c>Ni</c><c>   1</c></rc>
    <rc><c>Ni</c><c>   1</c></rc>
    <rc><c>Ni</c><c>   1</c></rc>
    <rc><c>Ni</c><c>   1</c></rc>
    <rc><c>Ni</c><c>   1</c></rc>
    <rc><c>Ni</c><c>   1</c></rc>
    <rc><c>Ni</c><c>   1</c></rc>
    <rc><c>Ni</c><c>   1</c></rc>
    <rc><c>Ni</c><c>   1</c></rc>
    <rc><c>Ni</c><c>   1</c></rc>
    <rc><c>Ni</c><c>   1</c></rc>
    <rc><c>Ni</c><c>   1</c></rc>
    <rc><c>Ni</c><c>   1</c></rc>
    <rc><c>Ni</c><c>   1</c></rc>
    <rc><c>Ni</c><c>   1</c></rc>
    <rc><c>Ni</c><c>   1</c></rc>
    <rc><c>Ni</c><c>   1</c></rc>
    <rc><c>Ni</c><c>   1</c></rc>
    <rc><c>Ni</c><c>   1</c></rc>
    <rc><c>Ni</c><c>   1</c></rc>
    <rc><c>Ni</c><c>   1</c></rc>
    <rc><c>Ni</c><c>   1</c></rc>
    <rc><c>Ni</c><c>   1</c></rc>
    <rc><c>Ni</c><c>   1</c></rc>
    <rc><c>Ni</c><c>   1</c></rc>
    <rc><c>Ni</c><c>   1</c></rc>
    <rc><c>Ni</c><c>   1</c></rc>
    <rc><c>Ni</c><c>   1</c></rc>
    <rc><c>Ni</c><c>   1</c></rc>
    <rc><c>Ni</c><c>   1</c></rc>
    <rc><c>Ni</c><c>   1</c></rc>
    <rc><c>Ni</c><c>   1</c></rc>
    <rc><c>Ni</c><c>   1</c></rc>
    <rc><c>Ni</c><c>   1</c></rc>
    <rc><c>Ni</c><c>   1</c></rc>
    <rc><c>Ni</c><c>   1</c></rc>
    <rc><c>Ni</c><c>   1</c></rc>
    <rc><c>Ni</c><c>   1</c></rc>
    <rc><c>Ni</c><c>   1</c></rc>
    <rc><c>Ni</c><c>   1</c></rc>
    <rc><c>Ni</c><c>   1</c></rc>
    <rc><c>Ni</c><c>   1</c></rc>
    <rc><c>Ni</c><c>   1</c></rc>
    <rc><c>Ni</c><c>   1</c></rc>
    <rc><c>Ni</c><c>   1</c></rc>
    <rc><c>Ni</c><c>   1</c></rc>
    <rc><c>Ni</c><c>   1</c></rc>
    <rc><c>Ni</c><c>   1</c></rc>
    <rc><c>Ni</c><c>   1</c></rc>
    <rc><c>Ni</c><c>   1</c></rc>
    <rc><c>Ni</c><c>   1</c></rc>
    <rc><c>Ni</c><c>   1</c></rc>
    <rc><c>Ni</c><c>   1</c></rc>
    <rc><c>Ni</c><c>   1</c></rc>
    <rc><c>Ni</c><c>   1</c></rc>
    <rc><c>Ni</c><c>   1</c></rc>
    <rc><c>Ni</c><c>   1</c></rc>
    <rc><c>Ni</c><c>   1</c></rc>
    <rc><c>Ni</c><c>   1</c></rc>
    <rc><c>Ni</c><c>   1</c></rc>
    <rc><c>Ni</c><c>   1</c></rc>
    <rc><c>Ni</c><c>   1</c></rc>
    <rc><c>Ni</c><c>   1</c></rc>
    <rc><c>Ni</c><c>   1</c></rc>
    <rc><c>Ni</c><c>   1</c></rc>
    <rc><c>Ni</c><c>   1</c></rc>
    <rc><c>Ni</c><c>   1</c></rc>
    <rc><c>Ni</c><c>   1</c></rc>
    <rc><c>Ni</c><c>   1</c></rc>
    <rc><c>Ni</c><c>   1</c></rc>
    <rc><c>Ni</c><c>   1</c></rc>
    <rc><c>Ni</c><c>   1</c></rc>
    <rc><c>Ni</c><c>   1</c></rc>
    <rc><c>Ni</c><c>   1</c></rc>
    <rc><c>Ni</c><c>   1</c></rc>
    <rc><c>Ni</c><c>   1</c></rc>
    <rc><c>Ni</c><c>   1</c></rc>
    <rc><c>Ni</c><c>   1</c></rc>
    <rc><c>Ni</c><c>   1</c></rc>
    <rc><c>Ni</c><c>   1</c></rc>
    <rc><c>Ni</c><c>   1</c></rc>
    <rc><c>Ni</c><c>   1</c></rc>
    <rc><c>Ni</c><c>   1</c></rc>
    <rc><c>Ni</c><c>   1</c></rc>
    <rc><c>Ni</c><c>   1</c></rc>
    <rc><c>Ni</c><c>   1</c></rc>
    <rc><c>Ni</c><c>   1</c></rc>
    <rc><c>Ni</c><c>   1</c></rc>
    <rc><c>Ni</c><c>   1</c></rc>
    <rc><c>Ni</c><c>   1</c></rc>
    <rc><c>Ni</c><c>   1</c></rc>
    <rc><c>Ni</c><c>   1</c></rc>
    <rc><c>Ni</c><c>   1</c></rc>
    <rc><c>Ni</c><c>   1</c></rc>
    <rc><c>Ni</c><c>   1</c></rc>
    <rc><c>Ni</c><c>   1</c></rc>
    <rc><c>Ni</c><c>   1</c></rc>
    <rc><c>Ni</c><c>   1</c></rc>
    <rc><c>Ni</c><c>   1</c></rc>
    <rc><c>Ni</c><c>   1</c></rc>
    <rc><c>Ni</c><c>   1</c></rc>
    <rc><c>Ni</c><c>   1</c></rc>
    <rc><c>Ni</c><c>   1</c></rc>
    <rc><c>Ni</c><c>   1</c></rc>
    <rc><c>Ni</c><c>   1</c></rc>
    <rc><c>Ni</c><c>   1</c></rc>
    <rc><c>Ni</c><c>   1</c></rc>
    <rc><c>Ni</c><c>   1</c></rc>
    <rc><c>Ni</c><c>   1</c></rc>
    <rc><c>Ni</c><c>   1</c></rc>
    <rc><c>Ni</c><c>   1</c></rc>
    <rc><c>Ni</c><c>   1</c></rc>
    <rc><c>O </c><c>   2</c></rc>
    <rc><c>O </c><c>   2</c></rc>
    <rc><c>O </c><c>   2</c></rc>
    <rc><c>O </c><c>   2</c></rc>
    <rc><c>O </c><c>   2</c></rc>
    <rc><c>O </c><c>   2</c></rc>
    <rc><c>O </c><c>   2</c></rc>
    <rc><c>O </c><c>   2</c></rc>
    <rc><c>O </c><c>   2</c></rc>
    <rc><c>O </c><c>   2</c></rc>
    <rc><c>O </c><c>   2</c></rc>
    <rc><c>O </c><c>   2</c></rc>
    <rc><c>O </c><c>   2</c></rc>
    <rc><c>O </c><c>   2</c></rc>
    <rc><c>O </c><c>   2</c></rc>
    <rc><c>O </c><c>   2</c></rc>
    <rc><c>O </c><c>   2</c></rc>
    <rc><c>O </c><c>   2</c></rc>
    <rc><c>O </c><c>   2</c></rc>
    <rc><c>O </c><c>   2</c></rc>
    <rc><c>O </c><c>   2</c></rc>
    <rc><c>O </c><c>   2</c></rc>
    <rc><c>O </c><c>   2</c></rc>
    <rc><c>O </c><c>   2</c></rc>
    <rc><c>O </c><c>   2</c></rc>
    <rc><c>O </c><c>   2</c></rc>
    <rc><c>O </c><c>   2</c></rc>
    <rc><c>O </c><c>   2</c></rc>
    <rc><c>O </c><c>   2</c></rc>
    <rc><c>O </c><c>   2</c></rc>
    <rc><c>O </c><c>   2</c></rc>
    <rc><c>O </c><c>   2</c></rc>
    <rc><c>O </c><c>   2</c></rc>
    <rc><c>O </c><c>   2</c></rc>
    <rc><c>O </c><c>   2</c></rc>
    <rc><c>O </c><c>   2</c></rc>
    <rc><c>O </c><c>   2</c></rc>
    <rc><c>O </c><c>   2</c></rc>
    <rc><c>O </c><c>   2</c></rc>
    <rc><c>O </c><c>   2</c></rc>
    <rc><c>O </c><c>   2</c></rc>
    <rc><c>O </c><c>   2</c></rc>
    <rc><c>O </c><c>   2</c></rc>
    <rc><c>O </c><c>   2</c></rc>
    <rc><c>O </c><c>   2</c></rc>
    <rc><c>O </c><c>   2</c></rc>
    <rc><c>O </c><c>   2</c></rc>
    <rc><c>O </c><c>   2</c></rc>
    <rc><c>O </c><c>   2</c></rc>
    <rc><c>O </c><c>   2</c></rc>
    <rc><c>O </c><c>   2</c></rc>
    <rc><c>O </c><c>   2</c></rc>
    <rc><c>O </c><c>   2</c></rc>
    <rc><c>O </c><c>   2</c></rc>
    <rc><c>O </c><c>   2</c></rc>
    <rc><c>O </c><c>   2</c></rc>
    <rc><c>O </c><c>   2</c></rc>
    <rc><c>O </c><c>   2</c></rc>
    <rc><c>O </c><c>   2</c></rc>
    <rc><c>O </c><c>   2</c></rc>
    <rc><c>O </c><c>   2</c></rc>
    <rc><c>O </c><c>   2</c></rc>
    <rc><c>O </c><c>   2</c></rc>
    <rc><c>O </c><c>   2</c></rc>
    <rc><c>O </c><c>   2</c></rc>
    <rc><c>O </c><c>   2</c></rc>
    <rc><c>O </c><c>   2</c></rc>
    <rc><c>O </c><c>   2</c></rc>
    <rc><c>O </c><c>   2</c></rc>
    <rc><c>O </c><c>   2</c></rc>
    <rc><c>O </c><c>   2</c></rc>
    <rc><c>O </c><c>   2</c></rc>
    <rc><c>O </c><c>   2</c></rc>
    <rc><c>O </c><c>   2</c></rc>
    <rc><c>O </c><c>   2</c></rc>
    <rc><c>O </c><c>   2</c></rc>
    <rc><c>O </c><c>   2</c></rc>
    <rc><c>O </c><c>   2</c></rc>
    <rc><c>O </c><c>   2</c></rc>
    <rc><c>O </c><c>   2</c></rc>
    <rc><c>O </c><c>   2</c></rc>
    <rc><c>O </c><c>   2</c></rc>
    <rc><c>O </c><c>   2</c></rc>
    <rc><c>O </c><c>   2</c></rc>
    <rc><c>O </c><c>   2</c></rc>
    <rc><c>O </c><c>   2</c></rc>
    <rc><c>O </c><c>   2</c></rc>
    <rc><c>O </c><c>   2</c></rc>
    <rc><c>O </c><c>   2</c></rc>
    <rc><c>O </c><c>   2</c></rc>
    <rc><c>O </c><c>   2</c></rc>
    <rc><c>O </c><c>   2</c></rc>
    <rc><c>O </c><c>   2</c></rc>
    <rc><c>O </c><c>   2</c></rc>
    <rc><c>O </c><c>   2</c></rc>
    <rc><c>O </c><c>   2</c></rc>
    <rc><c>O </c><c>   2</c></rc>
    <rc><c>O </c><c>   2</c></rc>
    <rc><c>O </c><c>   2</c></rc>
    <rc><c>O </c><c>   2</c></rc>
    <rc><c>O </c><c>   2</c></rc>
    <rc><c>O </c><c>   2</c></rc>
    <rc><c>O </c><c>   2</c></rc>
    <rc><c>O </c><c>   2</c></rc>
    <rc><c>O </c><c>   2</c></rc>
    <rc><c>O </c><c>   2</c></rc>
    <rc><c>O </c><c>   2</c></rc>
    <rc><c>O </c><c>   2</c></rc>
    <rc><c>O </c><c>   2</c></rc>
    <rc><c>O </c><c>   2</c></rc>
    <rc><c>O </c><c>   2</c></rc>
    <rc><c>O </c><c>   2</c></rc>
    <rc><c>O </c><c>   2</c></rc>
    <rc><c>O </c><c>   2</c></rc>
    <rc><c>O </c><c>   2</c></rc>
    <rc><c>O </c><c>   2</c></rc>
    <rc><c>O </c><c>   2</c></rc>
    <rc><c>O </c><c>   2</c></rc>
    <rc><c>O </c><c>   2</c></rc>
    <rc><c>O </c><c>   2</c></rc>
    <rc><c>O </c><c>   2</c></rc>
    <rc><c>O </c><c>   2</c></rc>
    <rc><c>O </c><c>   2</c></rc>
    <rc><c>O </c><c>   2</c></rc>
    <rc><c>O </c><c>   2</c></rc>
    <rc><c>O </c><c>   2</c></rc>
   </set>
  </array>
  <array name="atomtypes" >
   <dimension dim="1">type</dimension>
   <field type="int">atomspertype</field>
   <field type="string">element</field>
   <field>mass</field>
   <field>valence</field>
   <field type="string">pseudopotential</field>
   <set>
    <rc><c> 125</c><c>Ni</c><c>     58.69000000</c><c>     10.00000000</c><c>  PAW Ni_GW 31Mar2010                   </c></rc>
    <rc><c> 126</c><c>O </c><c>     16.00000000</c><c>      6.00000000</c><c>  PAW O_GW 19Mar2012                    </c></rc>
   </set>
  </array>
 </atominfo>
 <structure name="initialpos" >
  <crystal>
   <varray name="basis" >
    <v>      10.54150009       0.00000000       0.00000000 </v>
    <v>       5.27075005       9.12920687       0.00000000 </v>
    <v>       0.00000000       0.00000000      28.54150009 </v>
   </varray>
   <i name="volume">   2746.70653362 </i>
   <varray name="rec_basis" >
    <v>       0.09486316      -0.05476927       0.00000000 </v>
    <v>       0.00000000       0.10953854       0.00000000 </v>
    <v>       0.00000000       0.00000000       0.03503670 </v>
   </varray>
  </crystal>
  <varray name="positions" >
   <v>       0.00000000       0.00000000       0.00000000 </v>
   <v>       0.00000000       0.00000000       0.07386788 </v>
   <v>       0.00000000       0.00000000       0.14773576 </v>
   <v>       0.00000000       0.00000000       0.22160364 </v>
   <v>       0.00000000       0.00000000       0.29547151 </v>
   <v>       0.00000000       0.20000000       0.00000000 </v>
   <v>       0.00000000       0.20000000       0.07386788 </v>
   <v>       0.00000000       0.20000000       0.14773576 </v>
   <v>       0.00000000       0.20000000       0.22160364 </v>
   <v>       0.00000000       0.20000000       0.29547151 </v>
   <v>       0.00000000       0.40000001       0.00000000 </v>
   <v>       0.00000000       0.40000001       0.07386788 </v>
   <v>       0.00000000       0.40000001       0.14773576 </v>
   <v>       0.00000000       0.40000001       0.22160364 </v>
   <v>       0.00000000       0.40000001       0.29547151 </v>
   <v>       0.00000000       0.60000002       0.00000000 </v>
   <v>       0.00000000       0.60000002       0.07386788 </v>
   <v>       0.00000000       0.60000002       0.14773576 </v>
   <v>       0.00000000       0.60000002       0.22160364 </v>
   <v>       0.00000000       0.60000002       0.29547151 </v>
   <v>       0.00000000       0.80000001       0.00000000 </v>
   <v>       0.00000000       0.80000001       0.07386788 </v>
   <v>       0.00000000       0.80000001       0.14773576 </v>
   <v>       0.00000000       0.80000001       0.22160364 </v>
   <v>       0.00000000       0.80000001       0.29547151 </v>
   <v>       0.20000000       0.00000000       0.00000000 </v>
   <v>       0.20000000       0.00000000       0.07386788 </v>
   <v>       0.20000000       0.00000000       0.14773576 </v>
   <v>       0.20000000       0.00000000       0.22160364 </v>
   <v>       0.20000000       0.00000000       0.29547151 </v>
   <v>       0.20000000       0.20000000       0.00000000 </v>
   <v>       0.20000000       0.20000000       0.07386788 </v>
   <v>       0.20000000       0.20000000       0.14773576 </v>
   <v>       0.20000000       0.20000000       0.22160364 </v>
   <v>       0.20000000       0.20000000       0.29547151 </v>
   <v>       0.20000000       0.40000001       0.00000000 </v>
   <v>       0.20000000       0.40000001       0.07386788 </v>
   <v>       0.20000000       0.40000001       0.14773576 </v>
   <v>       0.20000000       0.40000001       0.22160364 </v>
   <v>       0.20000000       0.40000001       0.29547151 </v>
   <v>       0.20000000       0.60000002       0.00000000 </v>
   <v>       0.20000000       0.60000002       0.07386788 </v>
   <v>       0.20000000       0.60000002       0.14773576 </v>
   <v>       0.20000000       0.60000002       0.22160364 </v>
   <v>       0.20000000       0.60000002       0.29547151 </v>
   <v>       0.20000000       0.80000001       0.00000000 </v>
   <v>       0.20000000       0.80000001       0.07386788 </v>
   <v>       0.20000000       0.80000001       0.14773576 </v>
   <v>       0.20000000       0.80000001       0.22160364 </v>
   <v>       0.20000000       0.80000001       0.29547151 </v>
   <v>       0.40000001       0.00000000       0.00000000 </v>
   <v>       0.40000001       0.00000000       0.07386788 </v>
   <v>       0.40000001       0.00000000       0.14773576 </v>
   <v>       0.40000001       0.00000000       0.22160364 </v>
   <v>       0.40000001       0.00000000       0.29547151 </v>
   <v>       0.40000001       0.20000000       0.00000000 </v>
   <v>       0.40000001       0.20000000       0.07386788 </v>
   <v>       0.40000001       0.20000000       0.14773576 </v>
   <v>       0.40000001       0.20000000       0.22160364 </v>
   <v>       0.40000001       0.20000000       0.29547151 </v>
   <v>       0.40000001       0.40000001       0.00000000 </v>
   <v>       0.40000001       0.40000001       0.07386788 </v>
   <v>       0.40000001       0.40000001       0.14773576 </v>
   <v>       0.40000001       0.40000001       0.22160364 </v>
   <v>       0.40000001       0.40000001       0.29547151 </v>
   <v>       0.40000001       0.60000002       0.00000000 </v>
   <v>       0.40000001       0.60000002       0.07386788 </v>
   <v>       0.40000001       0.60000002       0.14773576 </v>
   <v>       0.40000001       0.60000002       0.22160364 </v>
   <v>       0.40000001       0.60000002       0.29547151 </v>
   <v>       0.40000001       0.80000001       0.00000000 </v>
   <v>       0.40000001       0.80000001       0.07386788 </v>
   <v>       0.40000001       0.80000001       0.14773576 </v>
   <v>       0.40000001       0.80000001       0.22160364 </v>
   <v>       0.40000001       0.80000001       0.29547151 </v>
   <v>       0.60000002       0.00000000       0.00000000 </v>
   <v>       0.60000002       0.00000000       0.07386788 </v>
   <v>       0.60000002       0.00000000       0.14773576 </v>
   <v>       0.60000002       0.00000000       0.22160364 </v>
   <v>       0.60000002       0.00000000       0.29547151 </v>
   <v>       0.60000002       0.20000000       0.00000000 </v>
   <v>       0.60000002       0.20000000       0.07386788 </v>
   <v>       0.60000002       0.20000000       0.14773576 </v>
   <v>       0.60000002       0.20000000       0.22160364 </v>
   <v>       0.60000002       0.20000000       0.29547151 </v>
   <v>       0.60000002       0.40000001       0.00000000 </v>
   <v>       0.60000002       0.40000001       0.07386788 </v>
   <v>       0.60000002       0.40000001       0.14773576 </v>
   <v>       0.60000002       0.40000001       0.22160364 </v>
   <v>       0.60000002       0.40000001       0.29547151 </v>
   <v>       0.60000002       0.60000002       0.00000000 </v>
   <v>       0.60000002       0.60000002       0.07386788 </v>
   <v>       0.60000002       0.60000002       0.14773576 </v>
   <v>       0.60000002       0.60000002       0.22160364 </v>
   <v>       0.60000002       0.60000002       0.29547151 </v>
   <v>       0.60000002       0.80000001       0.00000000 </v>
   <v>       0.60000002       0.80000001       0.07386788 </v>
   <v>       0.60000002       0.80000001       0.14773576 </v>
   <v>       0.60000002       0.80000001       0.22160364 </v>
   <v>       0.60000002       0.80000001       0.29547151 </v>
   <v>       0.80000001       0.00000000       0.00000000 </v>
   <v>       0.80000001       0.00000000       0.07386788 </v>
   <v>       0.80000001       0.00000000       0.14773576 </v>
   <v>       0.80000001       0.00000000       0.22160364 </v>
   <v>       0.80000001       0.00000000       0.29547151 </v>
   <v>       0.80000001       0.20000000       0.00000000 </v>
   <v>       0.80000001       0.20000000       0.07386788 </v>
   <v>       0.80000001       0.20000000       0.14773576 </v>
   <v>       0.80000001       0.20000000       0.22160364 </v>
   <v>       0.80000001       0.20000000       0.29547151 </v>
   <v>       0.80000001       0.40000001       0.00000000 </v>
   <v>       0.80000001       0.40000001       0.07386788 </v>
   <v>       0.80000001       0.40000001       0.14773576 </v>
   <v>       0.80000001       0.40000001       0.22160364 </v>
   <v>       0.80000001       0.40000001       0.29547151 </v>
   <v>       0.80000001       0.60000002       0.00000000 </v>
   <v>       0.80000001       0.60000002       0.07386788 </v>
   <v>       0.80000001       0.60000002       0.14773576 </v>
   <v>       0.80000001       0.60000002       0.22160364 </v>
   <v>       0.80000001       0.60000002       0.29547151 </v>
   <v>       0.80000001       0.80000001       0.00000000 </v>
   <v>       0.80000001       0.80000001       0.07386788 </v>
   <v>       0.80000001       0.80000001       0.14773576 </v>
   <v>       0.80000001       0.80000001       0.22160364 </v>
   <v>       0.80000001       0.80000001       0.29547151 </v>
   <v>       0.10000000       0.10000000       0.03693394 </v>
   <v>       0.10000000       0.10000000       0.11080182 </v>
   <v>       0.10000000       0.10000000       0.18466969 </v>
   <v>       0.10000000       0.10000000       0.25853757 </v>
   <v>       0.10000000       0.10000000       0.33240544 </v>
   <v>       0.10000000       0.30000001       0.03693394 </v>
   <v>       0.10000000       0.30000001       0.11080182 </v>
   <v>       0.10000000       0.30000001       0.18466969 </v>
   <v>       0.10000000       0.30000001       0.25853757 </v>
   <v>       0.10000000       0.30000001       0.33240544 </v>
   <v>       0.10000000       0.50000000       0.03693394 </v>
   <v>       0.10000000       0.50000000       0.11080182 </v>
   <v>       0.10000000       0.50000000       0.18466969 </v>
   <v>       0.10000000       0.50000000       0.25853757 </v>
   <v>       0.10000000       0.50000000       0.33240544 </v>
   <v>       0.10000000       0.69999999       0.03693394 </v>
   <v>       0.10000000       0.69999999       0.11080182 </v>
   <v>       0.10000000       0.69999999       0.18466969 </v>
   <v>       0.10000000       0.69999999       0.25853757 </v>
   <v>       0.10000000       0.69999999       0.33240544 </v>
   <v>       0.10000000       0.89999998       0.03693394 </v>
   <v>       0.10000000       0.89999998       0.11080182 </v>
   <v>       0.10000000       0.89999998       0.18466969 </v>
   <v>       0.10000000       0.89999998       0.25853757 </v>
   <v>       0.10000000       0.89999998       0.33240544 </v>
   <v>       0.30000001       0.10000000       0.03693394 </v>
   <v>       0.30000001       0.10000000       0.11080182 </v>
   <v>       0.30000001       0.10000000       0.18466969 </v>
   <v>       0.30000001       0.10000000       0.25853757 </v>
   <v>       0.30000001       0.10000000       0.33240544 </v>
   <v>       0.30000001       0.30000001       0.03693394 </v>
   <v>       0.30000001       0.30000001       0.11080182 </v>
   <v>       0.30000001       0.30000001       0.18466969 </v>
   <v>       0.30000001       0.30000001       0.25853757 </v>
   <v>       0.30000001       0.30000001       0.33240544 </v>
   <v>       0.30000001       0.50000000       0.03693394 </v>
   <v>       0.30000001       0.50000000       0.11080182 </v>
   <v>       0.30000001       0.50000000       0.18466969 </v>
   <v>       0.30000001       0.50000000       0.25853757 </v>
   <v>       0.30000001       0.50000000       0.33240544 </v>
   <v>       0.30000001       0.69999999       0.03693394 </v>
   <v>       0.30000001       0.69999999       0.11080182 </v>
   <v>       0.30000001       0.69999999       0.18466969 </v>
   <v>       0.30000001       0.69999999       0.25853757 </v>
   <v>       0.30000001       0.69999999       0.33240544 </v>
   <v>       0.30000001       0.89999998       0.03693394 </v>
   <v>       0.30000001       0.89999998       0.11080182 </v>
   <v>       0.30000001       0.89999998       0.18466969 </v>
   <v>       0.30000001       0.89999998       0.25853757 </v>
   <v>       0.30000001       0.89999998       0.33240544 </v>
   <v>       0.50000000       0.10000000       0.03693394 </v>
   <v>       0.50000000       0.10000000       0.11080182 </v>
   <v>       0.50000000       0.10000000       0.18466969 </v>
   <v>       0.50000000       0.10000000       0.25853757 </v>
   <v>       0.50000000       0.10000000       0.33240544 </v>
   <v>       0.50000000       0.30000001       0.03693394 </v>
   <v>       0.50000000       0.30000001       0.11080182 </v>
   <v>       0.50000000       0.30000001       0.18466969 </v>
   <v>       0.50000000       0.30000001       0.25853757 </v>
   <v>       0.50000000       0.30000001       0.33240544 </v>
   <v>       0.50000000       0.50000000       0.03693394 </v>
   <v>       0.50000000       0.50000000       0.11080182 </v>
   <v>       0.50000000       0.50000000       0.18466969 </v>
   <v>       0.50000000       0.50000000       0.25853757 </v>
   <v>       0.50000000       0.50000000       0.33240544 </v>
   <v>       0.50000000       0.69999999       0.03693394 </v>
   <v>       0.50000000       0.69999999       0.11080182 </v>
   <v>       0.50000000       0.69999999       0.18466969 </v>
   <v>       0.50000000       0.69999999       0.25853757 </v>
   <v>       0.50000000       0.69999999       0.33240544 </v>
   <v>       0.50000000       0.89999998       0.03693394 </v>
   <v>       0.50000000       0.89999998       0.11080182 </v>
   <v>       0.50000000       0.89999998       0.18466969 </v>
   <v>       0.50000000       0.89999998       0.25853757 </v>
   <v>       0.50000000       0.89999998       0.33240544 </v>
   <v>       0.69999999       0.10000000       0.03693394 </v>
   <v>       0.69999999       0.10000000       0.11080182 </v>
   <v>       0.69999999       0.10000000       0.18466969 </v>
   <v>       0.69999999       0.10000000       0.25853757 </v>
   <v>       0.69999999       0.10000000       0.33240544 </v>
   <v>       0.69999999       0.30000001       0.03693394 </v>
   <v>       0.69999999       0.30000001       0.11080182 </v>
   <v>       0.69999999       0.30000001       0.18466969 </v>
   <v>       0.69999999       0.30000001       0.25853757 </v>
   <v>       0.69999999       0.30000001       0.33240544 </v>
   <v>       0.69999999       0.50000000       0.03693394 </v>
   <v>       0.69999999       0.50000000       0.11080182 </v>
   <v>       0.69999999       0.50000000       0.18466969 </v>
   <v>       0.69999999       0.50000000       0.25853757 </v>
   <v>       0.69999999       0.50000000       0.33240544 </v>
   <v>       0.69999999       0.69999999       0.03693394 </v>
   <v>       0.69999999       0.69999999       0.11080182 </v>
   <v>       0.69999999       0.69999999       0.18466969 </v>
   <v>       0.69999999       0.69999999       0.25853757 </v>
   <v>       0.69999999       0.69999999       0.33240544 </v>
   <v>       0.69999999       0.89999998       0.03693394 </v>
   <v>       0.69999999       0.89999998       0.11080182 </v>
   <v>       0.69999999       0.89999998       0.18466969 </v>
   <v>       0.69999999       0.89999998       0.25853757 </v>
   <v>       0.69999999       0.89999998       0.33240544 </v>
   <v>       0.89999998       0.10000000       0.03693394 </v>
   <v>       0.89999998       0.10000000       0.11080182 </v>
   <v>       0.89999998       0.10000000       0.18466969 </v>
   <v>       0.89999998       0.10000000       0.25853757 </v>
   <v>       0.89999998       0.10000000       0.33240544 </v>
   <v>       0.89999998       0.30000001       0.03693394 </v>
   <v>       0.89999998       0.30000001       0.11080182 </v>
   <v>       0.89999998       0.30000001       0.18466969 </v>
   <v>       0.89999998       0.30000001       0.25853757 </v>
   <v>       0.89999998       0.30000001       0.33240544 </v>
   <v>       0.89999998       0.50000000       0.03693394 </v>
   <v>       0.89999998       0.50000000       0.11080182 </v>
   <v>       0.89999998       0.50000000       0.18466969 </v>
   <v>       0.89999998       0.50000000       0.25853757 </v>
   <v>       0.89999998       0.50000000       0.33240544 </v>
   <v>       0.89999998       0.69999999       0.03693394 </v>
   <v>       0.89999998       0.69999999       0.11080182 </v>
   <v>       0.89999998       0.69999999       0.18466969 </v>
   <v>       0.89999998       0.69999999       0.25853757 </v>
   <v>       0.89999998       0.69999999       0.33240544 </v>
   <v>       0.89999998       0.89999998       0.03693394 </v>
   <v>       0.89999998       0.89999998       0.11080182 </v>
   <v>       0.89999998       0.89999998       0.18466969 </v>
   <v>       0.89999998       0.89999998       0.25853757 </v>
   <v>       0.89999998       0.89999998       0.33240544 </v>
   <v>       0.42141986       0.42141986       0.36744214 </v>
  </varray>
 </structure>
 <calculation>
  <scstep>
   <time name="dav">   13.05   13.06</time>
   <time name="total">   13.56   13.59</time>
   <energy>
    <i name="alphaZ">  10923.08332430 </i>
    <i name="ewald">3376957.84474583 </i>
    <i name="hartreedc">**************** </i>
    <i name="XCdc">   5471.22369199 </i>
    <i name="pawpsdc"> 163014.54298785 </i>
    <i name="pawaedc">-172616.29869954 </i>
    <i name="eentropy">     -0.06036611 </i>
    <i name="bandstr">  16479.90122250 </i>
    <i name="atom"> 189132.72770211 </i>
    <i name="e_fr_energy">  31106.56507314 </i>
    <i name="e_wo_entrp">  31106.62543926 </i>
    <i name="e_0_energy">  31106.59525620 </i>
   </energy>
  </scstep>
  <scstep>
   <time name="dav">   13.33   13.34</time>
   <time name="total">   13.33   13.34</time>
   <energy>
    <i name="e_fr_energy">   5174.67104269 </i>
    <i name="e_wo_entrp">   5174.73610577 </i>
    <i name="e_0_energy">   5174.70357423 </i>
   </energy>
  </scstep>
  <scstep>
   <time name="dav">   15.35   15.36</time>
   <time name="total">   15.36   15.37</time>
   <energy>
    <i name="e_fr_energy">    530.96527551 </i>
    <i name="e_wo_entrp">    531.09127046 </i>
    <i name="e_0_energy">    531.02827298 </i>
   </energy>
  </scstep>
  <scstep>
   <time name="dav">   17.32   17.32</time>
   <time name="total">   17.32   17.33</time>
   <energy>
    <i name="e_fr_energy">      8.07173241 </i>
    <i name="e_wo_entrp">      8.23890729 </i>
    <i name="e_0_energy">      8.15531985 </i>
   </energy>
  </scstep>
  <scstep>
   <time name="dav">   16.26   16.26</time>
   <time name="total">   16.95   16.95</time>
   <energy>
    <i name="e_fr_energy">     -9.08533065 </i>
    <i name="e_wo_entrp">     -8.91699469 </i>
    <i name="e_0_energy">     -9.00116267 </i>
   </energy>
  </scstep>
  <scstep>
   <time name="dav">   19.86   19.86</time>
   <time name="total">   21.01   21.01</time>
   <energy>
    <i name="e_fr_energy">   -371.03295456 </i>
    <i name="e_wo_entrp">   -370.92898150 </i>
    <i name="e_0_energy">   -370.98096803 </i>
   </energy>
  </scstep>
  <scstep>
   <time name="dav">   18.97   18.98</time>
   <time name="total">   20.12   20.12</time>
   <energy>
    <i name="e_fr_energy"> -10249.95713731 </i>
    <i name="e_wo_entrp"> -10249.91025265 </i>
    <i name="e_0_energy"> -10249.93369498 </i>
   </energy>
  </scstep>
  <scstep>
   <time name="dav">   19.32   19.32</time>
   <time name="total">   20.45   20.45</time>
   <energy>
    <i name="e_fr_energy"> -11546.73741111 </i>
    <i name="e_wo_entrp"> -11546.66400151 </i>
    <i name="e_0_energy"> -11546.70070631 </i>
   </energy>
  </scstep>
  <scstep>
   <time name="dav">   17.70   17.70</time>
   <time name="total">   18.86   18.86</time>
   <energy>
    <i name="e_fr_energy">  -8458.33170168 </i>
    <i name="e_wo_entrp">  -8458.25703967 </i>
    <i name="e_0_energy">  -8458.29437068 </i>
   </energy>
  </scstep>
  <scstep>
   <time name="dav">   20.73   20.73</time>
   <time name="total">   21.87   21.88</time>
   <energy>
    <i name="e_fr_energy">  -3539.87211902 </i>
    <i name="e_wo_entrp">  -3539.77970033 </i>
    <i name="e_0_energy">  -3539.82590967 </i>
   </energy>
  </scstep>
  <scstep>
   <time name="dav">   18.27   18.27</time>
   <time name="total">   19.42   19.43</time>
   <energy>
    <i name="e_fr_energy">  -1436.52004345 </i>
    <i name="e_wo_entrp">  -1436.38042523 </i>
    <i name="e_0_energy">  -1436.45023434 </i>
   </energy>
  </scstep>
  <scstep>
   <time name="dav">   18.47   18.47</time>
   <time name="total">   19.64   19.65</time>
   <energy>
    <i name="e_fr_energy">   -780.25683911 </i>
    <i name="e_wo_entrp">   -780.18787219 </i>
    <i name="e_0_energy">   -780.22235565 </i>
   </energy>
  </scstep>
  <scstep>
   <time name="dav">   17.82   17.82</time>
   <time name="total">   18.95   18.95</time>
   <energy>
    <i name="e_fr_energy">  -2025.43670420 </i>
    <i name="e_wo_entrp">  -2025.31071809 </i>
    <i name="e_0_energy">  -2025.37371115 </i>
   </energy>
  </scstep>
  <scstep>
   <time name="dav">   17.66   17.66</time>
   <time name="total">   18.82   18.83</time>
   <energy>
    <i name="e_fr_energy">   -815.94913314 </i>
    <i name="e_wo_entrp">   -815.88981580 </i>
    <i name="e_0_energy">   -815.91947447 </i>
   </energy>
  </scstep>
  <scstep>
   <time name="dav">   16.69   16.69</time>
   <time name="total">   17.85   17.85</time>
   <energy>
    <i name="e_fr_energy">  -3001.15486027 </i>
    <i name="e_wo_entrp">  -3001.11997054 </i>
    <i name="e_0_energy">  -3001.13741540 </i>
   </energy>
  </scstep>
  <scstep>
   <time name="dav">   17.46   17.46</time>
   <time name="total">   18.63   18.63</time>
   <energy>
    <i name="e_fr_energy">  -1327.18248275 </i>
    <i name="e_wo_entrp">  -1327.12381549 </i>
    <i name="e_0_energy">  -1327.15314912 </i>
   </energy>
  </scstep>
  <scstep>
   <time name="dav">   19.42   19.42</time>
   <time name="total">   20.60   20.61</time>
   <energy>
    <i name="e_fr_energy">   -452.54999430 </i>
    <i name="e_wo_entrp">   -452.51999576 </i>
    <i name="e_0_energy">   -452.53499503 </i>
   </energy>
  </scstep>
  <scstep>
   <time name="dav">   20.14   20.14</time>
   <time name="total">   21.30   21.31</time>
   <energy>
    <i name="e_fr_energy">    273.06000728 </i>
    <i name="e_wo_entrp">    273.18424516 </i>
    <i name="e_0_energy">    273.12212622 </i>
   </energy>
  </scstep>
  <scstep>
   <time name="dav">   18.52   18.53</time>
   <time name="total">   19.73   19.73</time>
   <energy>
    <i name="e_fr_energy">    412.88013816 </i>
    <i name="e_wo_entrp">    413.02194054 </i>
    <i name="e_0_energy">    412.95103935 </i>
   </energy>
  </scstep>
  <scstep>
   <time name="dav">   13.74   13.75</time>
   <time name="total">   14.92   14.93</time>
   <energy>
    <i name="e_fr_energy">    403.21864090 </i>
    <i name="e_wo_entrp">    403.37976367 </i>
    <i name="e_0_energy">    403.29920228 </i>
   </energy>
  </scstep>
  <scstep>
   <time name="dav">   13.41   13.42</time>
   <time name="total">   14.62   14.63</time>
   <energy>
    <i name="e_fr_energy">    404.01252898 </i>
    <i name="e_wo_entrp">    404.19974314 </i>
    <i name="e_0_energy">    404.10613606 </i>
   </energy>
  </scstep>
  <scstep>
   <time name="dav">   13.72   13.72</time>
   <time name="total">   14.91   14.92</time>
   <energy>
    <i name="e_fr_energy">    399.59856545 </i>
    <i name="e_wo_entrp">    399.77930886 </i>
    <i name="e_0_energy">    399.68893716 </i>
   </energy>
  </scstep>
  <scstep>
   <time name="dav">   13.68   13.68</time>
   <time name="total">   14.90   14.90</time>
   <energy>
    <i name="e_fr_energy">    405.51030482 </i>
    <i name="e_wo_entrp">    405.74364195 </i>
    <i name="e_0_energy">    405.62697338 </i>
   </energy>
  </scstep>
  <scstep>
   <time name="dav">   13.54   13.54</time>
   <time name="total">   14.76   14.76</time>
   <energy>
    <i name="e_fr_energy">    404.24353387 </i>
    <i name="e_wo_entrp">    404.40333339 </i>
    <i name="e_0_energy">    404.32343363 </i>
   </energy>
  </scstep>
  <scstep>
   <time name="dav">   18.40   18.41</time>
   <time name="total">   19.61   19.61</time>
   <energy>
    <i name="e_fr_energy">    408.03468843 </i>
    <i name="e_wo_entrp">    408.17103204 </i>
    <i name="e_0_energy">    408.10286023 </i>
   </energy>
  </scstep>
  <scstep>
   <time name="dav">   15.96   15.96</time>
   <time name="total">   17.19   17.20</time>
   <energy>
    <i name="e_fr_energy">    406.67523063 </i>
    <i name="e_wo_entrp">    406.86151270 </i>
    <i name="e_0_energy">    406.76837167 </i>
   </energy>
  </scstep>
  <scstep>
   <time name="dav">   16.08   16.09</time>
   <time name="total">   17.32   17.33</time>
   <energy>
    <i name="e_fr_energy">    413.28198891 </i>
    <i name="e_wo_entrp">    413.41474623 </i>
    <i name="e_0_energy">    413.34836757 </i>
   </energy>
  </scstep>
  <scstep>
   <time name="dav">   13.75   13.75</time>
   <time name="total">   14.99   14.99</time>
   <energy>
    <i name="e_fr_energy">    418.16923825 </i>
    <i name="e_wo_entrp">    418.35647380 </i>
    <i name="e_0_energy">    418.26285602 </i>
   </energy>
  </scstep>
  <scstep>
   <time name="dav">   16.36   16.36</time>
   <time name="total">   17.62   17.62</time>
   <energy>
    <i name="e_fr_energy">    401.70774387 </i>
    <i name="e_wo_entrp">    401.79259864 </i>
    <i name="e_0_energy">    401.75017125 </i>
   </energy>
  </scstep>
  <scstep>
   <time name="dav">   13.87   13.87</time>
   <time name="total">   15.12   15.12</time>
   <energy>
    <i name="e_fr_energy">    412.49113645 </i>
    <i name="e_wo_entrp">    412.60621226 </i>
    <i name="e_0_energy">    412.54867435 </i>
   </energy>
  </scstep>
  <scstep>
   <time name="dav">   13.58   13.58</time>
   <time name="total">   14.82   14.83</time>
   <energy>
    <i name="e_fr_energy">    418.25004974 </i>
    <i name="e_wo_entrp">    418.37328232 </i>
    <i name="e_0_energy">    418.31166603 </i>
   </energy>
  </scstep>
  <scstep>
   <time name="dav">   13.57   13.57</time>
   <time name="total">   14.84   14.85</time>
   <energy>
    <i name="e_fr_energy">    415.02661290 </i>
    <i name="e_wo_entrp">    415.14595448 </i>
    <i name="e_0_energy">    415.08628369 </i>
   </energy>
  </scstep>
  <scstep>
   <time name="dav">   14.65   14.65</time>
   <time name="total">   15.91   15.91</time>
   <energy>
    <i name="e_fr_energy">    419.77905415 </i>
    <i name="e_wo_entrp">    419.89097477 </i>
    <i name="e_0_energy">    419.83501446 </i>
   </energy>
  </scstep>
  <scstep>
   <time name="dav">   13.86   13.86</time>
   <time name="total">   15.16   15.16</time>
   <energy>
    <i name="e_fr_energy">    418.67110729 </i>
    <i name="e_wo_entrp">    418.77988101 </i>
    <i name="e_0_energy">    418.72549415 </i>
   </energy>
  </scstep>
  <scstep>
   <time name="dav">   14.39   14.40</time>
[...]
       <r>     2.7515   320.0240  1856.0186 </r>
       <r>     2.8763   318.7233  1895.7799 </r>
       <r>     3.0010   295.3438  1932.6246 </r>
       <r>     3.1258   281.5367  1967.7469 </r>
       <r>     3.2505   261.8296  2000.4106 </r>
       <r>     3.3753   252.6699  2031.9316 </r>
       <r>     3.5000   212.8113  2058.4802 </r>
       <r>     3.6248   197.6754  2083.1406 </r>
       <r>     3.7495   174.9814  2104.9698 </r>
       <r>     3.8743   172.9099  2126.5407 </r>
       <r>     3.9990   154.2682  2145.7859 </r>
       <r>     4.1238   147.2109  2164.1507 </r>
       <r>     4.2485   126.6322  2179.9483 </r>
       <r>     4.3733   122.1260  2195.1838 </r>
       <r>     4.4980   110.7644  2209.0018 </r>
       <r>     4.6228    85.9448  2219.7236 </r>
       <r>     4.7476    78.7135  2229.5432 </r>
       <r>     4.8723    65.0925  2237.6637 </r>
       <r>     4.9971    49.1201  2243.7915 </r>
       <r>     5.1218    46.9942  2249.6541 </r>
       <r>     5.2466    28.4858  2253.2077 </r>
       <r>     5.3713    29.5452  2256.8936 </r>
       <r>     5.4961    15.7642  2258.8602 </r>
       <r>     5.6208    28.5664  2262.4239 </r>
       <r>     5.7456    12.7592  2264.0156 </r>
       <r>     5.8703    17.0954  2266.1483 </r>
       <r>     5.9951    20.2771  2268.6779 </r>
       <r>     6.1198    27.8204  2272.1486 </r>
       <r>     6.2446    17.7556  2274.3636 </r>
       <r>     6.3693    26.5660  2277.6778 </r>
       <r>     6.4941    29.4597  2281.3529 </r>
       <r>     6.6188    31.2787  2285.2550 </r>
       <r>     6.7436    28.6333  2288.8270 </r>
       <r>     6.8683    26.2328  2292.0996 </r>
       <r>     6.9931    32.4428  2296.1469 </r>
       <r>     7.1178    16.7816  2298.2405 </r>
       <r>     7.2426    34.5179  2302.5467 </r>
       <r>     7.3673    30.5836  2306.3620 </r>
       <r>     7.4921    29.5947  2310.0540 </r>
       <r>     7.6168    24.5686  2313.1190 </r>
       <r>     7.7416    26.0290  2316.3662 </r>
       <r>     7.8663    32.6794  2320.4430 </r>
       <r>     7.9911    47.0602  2326.3138 </r>
       <r>     8.1159    32.2342  2330.3351 </r>
       <r>     8.2406    40.6750  2335.4094 </r>
       <r>     8.3654    38.8534  2340.2564 </r>
       <r>     8.4901    52.3372  2346.7856 </r>
       <r>     8.6149    45.6171  2352.4764 </r>
       <r>     8.7396    45.4223  2358.1429 </r>
       <r>     8.8644    53.0315  2364.7587 </r>
       <r>     8.9891    51.0018  2371.1212 </r>
       <r>     9.1139    46.5939  2376.9339 </r>
       <r>     9.2386    57.2689  2384.0783 </r>
       <r>     9.3634    52.1442  2390.5834 </r>
       <r>     9.4881    43.6270  2396.0259 </r>
       <r>     9.6129    40.1600  2401.0360 </r>
       <r>     9.7376    35.1624  2405.4226 </r>
       <r>     9.8624     4.5792  2405.9938 </r>
       <r>     9.9871     0.0496  2406.0000 </r>
       <r>    10.1119     0.0000  2406.0000 </r>
       <r>    10.2366     0.0000  2406.0000 </r>
       <r>    10.3614     0.0000  2406.0000 </r>
       <r>    10.4861     0.0000  2406.0000 </r>
       <r>    10.6109     0.0000  2406.0000 </r>
       <r>    10.7356     0.0000  2406.0000 </r>
       <r>    10.8604     0.0000  2406.0000 </r>
       <r>    10.9851     0.0000  2406.0000 </r>
       <r>    11.1099     0.0000  2406.0000 </r>
       <r>    11.2346     0.0000  2406.0000 </r>
       <r>    11.3594     0.0000  2406.0000 </r>
       <r>    11.4842     0.0000  2406.0000 </r>
      </set>
     </set>
    </array>
   </total>
  </dos>
 </calculation>
 <structure name="finalpos" >
  <crystal>
   <varray name="basis" >
    <v>      10.54150009       0.00000000       0.00000000 </v>
    <v>       5.27075005       9.12920687       0.00000000 </v>
    <v>       0.00000000       0.00000000      28.54150009 </v>
   </varray>
   <i name="volume">   2746.70653362 </i>
   <varray name="rec_basis" >
    <v>       0.09486316      -0.05476927       0.00000000 </v>
    <v>       0.00000000       0.10953854       0.00000000 </v>
    <v>       0.00000000       0.00000000       0.03503670 </v>
   </varray>
  </crystal>
  <varray name="positions" >
   <v>       0.00173068       0.00173068      -0.12569811 </v>
   <v>       0.00016212       0.00016212      -0.00167676 </v>
   <v>      -0.00499386      -0.00499386       0.15570291 </v>
   <v>       0.00466397       0.00466397       0.27182284 </v>
   <v>      -0.00071120      -0.00071120       0.37336112 </v>
   <v>      -0.00269868       0.20033100      -0.09586831 </v>
   <v>      -0.00150400       0.20084912       0.00847703 </v>
   <v>      -0.01210694       0.19104535       0.11238358 </v>
   <v>       0.00168374       0.20283323       0.24288556 </v>
   <v>      -0.00210443       0.22564652       0.36902901 </v>
   <v>       0.00222210       0.39921945      -0.11423200 </v>
   <v>       0.00013701       0.40240212       0.00306748 </v>
   <v>       0.00429575       0.39649687       0.12049513 </v>
   <v>       0.00942014       0.40306818       0.24073634 </v>
   <v>       0.01650394       0.40175516       0.41691089 </v>
   <v>      -0.00082661       0.60010862      -0.11926895 </v>
   <v>      -0.00752634       0.61195467       0.02034891 </v>
   <v>       0.00470829       0.60381351       0.15541250 </v>
   <v>       0.02758429       0.59026727       0.26949955 </v>
   <v>       0.00297906       0.60469035       0.40208227 </v>
   <v>      -0.01000708       0.80878175      -0.10981751 </v>
   <v>       0.02771153       0.77590187      -0.01501185 </v>
   <v>      -0.00783282       0.80240025       0.08188991 </v>
   <v>       0.02936862       0.76808410       0.24108925 </v>
   <v>      -0.00058524       0.80112750       0.40899169 </v>
   <v>       0.20033100      -0.00269868      -0.09586831 </v>
   <v>       0.20084912      -0.00150400       0.00847703 </v>
   <v>       0.19104535      -0.01210694       0.11238358 </v>
   <v>       0.20283323       0.00168374       0.24288556 </v>
   <v>       0.22564652      -0.00210443       0.36902901 </v>
   <v>       0.20107396       0.20107396      -0.11734248 </v>
   <v>       0.20319612       0.20319612      -0.00186856 </v>
   <v>       0.19893129       0.19893129       0.13144997 </v>
   <v>       0.20930360       0.20930360       0.23542547 </v>
   <v>       0.20658814       0.20658814       0.38819986 </v>
   <v>       0.20126767       0.40309014      -0.09336501 </v>
   <v>       0.20400349       0.40005024       0.01796496 </v>
   <v>       0.19977620       0.40504646       0.13581840 </v>
   <v>       0.20703855       0.39883897       0.28965800 </v>
   <v>       0.22151350       0.40835588       0.40423882 </v>
   <v>       0.20201423       0.59752473      -0.11898923 </v>
   <v>       0.22243330       0.58542539      -0.02983766 </v>
   <v>       0.19678035       0.60376136       0.08660207 </v>
   <v>       0.17448381       0.63315897       0.19429284 </v>
   <v>       0.22947212       0.57947157       0.37051961 </v>
   <v>       0.20082738       0.80062098      -0.11787597 </v>
   <v>       0.19193028       0.80346310       0.02087268 </v>
   <v>       0.19707962       0.80704809       0.15161653 </v>
   <v>       0.19424513       0.80018796       0.27972515 </v>
   <v>       0.19956455       0.80289248       0.40216154 </v>
   <v>       0.39921945       0.00222210      -0.11423200 </v>
   <v>       0.40240212       0.00013701       0.00306748 </v>
   <v>       0.39649687       0.00429575       0.12049513 </v>
   <v>       0.40306818       0.00942014       0.24073634 </v>
   <v>       0.40175516       0.01650394       0.41691089 </v>
   <v>       0.40309014       0.20126767      -0.09336501 </v>
   <v>       0.40005024       0.20400349       0.01796496 </v>
   <v>       0.40504646       0.19977620       0.13581840 </v>
   <v>       0.39883897       0.20703855       0.28965800 </v>
   <v>       0.40835588       0.22151350       0.40423882 </v>
   <v>       0.39931477       0.39931477      -0.15123649 </v>
   <v>       0.39953091       0.39953091      -0.00780274 </v>
   <v>       0.39815132       0.39815132       0.08634473 </v>
   <v>       0.39813297       0.39813297       0.19453276 </v>
   <v>       0.41068853       0.41068853       0.30639899 </v>
   <v>       0.40060271       0.59456509      -0.09509473 </v>
   <v>       0.38744463       0.60559512       0.01378968 </v>
   <v>       0.39099316       0.59851082       0.12909050 </v>
   <v>       0.38808394       0.59414909       0.26924145 </v>
   <v>       0.39119515       0.58111275       0.42387036 </v>
   <v>       0.40284807       0.79646153      -0.11103189 </v>
   <v>       0.40163020       0.79365070       0.00255744 </v>
   <v>       0.39956149       0.79711685       0.12008264 </v>
   <v>       0.39425527       0.77989477       0.22744604 </v>
   <v>       0.39432976       0.81046462       0.42150851 </v>
   <v>       0.60010862      -0.00082661      -0.11926895 </v>
   <v>       0.61195467      -0.00752634       0.02034891 </v>
   <v>       0.60381351       0.00470829       0.15541250 </v>
   <v>       0.59026727       0.02758429       0.26949955 </v>
   <v>       0.60469035       0.00297906       0.40208227 </v>
   <v>       0.59752473       0.20201423      -0.11898923 </v>
   <v>       0.58542539       0.22243330      -0.02983766 </v>
   <v>       0.60376136       0.19678035       0.08660207 </v>
   <v>       0.63315897       0.17448381       0.19429284 </v>
   <v>       0.57947157       0.22947212       0.37051961 </v>
   <v>       0.59456509       0.40060271      -0.09509473 </v>
   <v>       0.60559512       0.38744463       0.01378968 </v>
   <v>       0.59851082       0.39099316       0.12909050 </v>
   <v>       0.59414909       0.38808394       0.26924145 </v>
   <v>       0.58111275       0.39119515       0.42387036 </v>
   <v>       0.59942623       0.59942623      -0.12218273 </v>
   <v>       0.59755621       0.59755621       0.00286392 </v>
   <v>       0.60409795       0.60409795       0.12913229 </v>
   <v>       0.59844300       0.59844300       0.25694720 </v>
   <v>       0.58470461       0.58470461       0.37597782 </v>
   <v>       0.60907343       0.79520167      -0.09688420 </v>
   <v>       0.59557770       0.80447532       0.01602502 </v>
   <v>       0.61751193       0.80215067       0.12466091 </v>
   <v>       0.59643536       0.79929124       0.23933972 </v>
   <v>       0.57396623       0.81827155       0.38795380 </v>
   <v>       0.80878175      -0.01000708      -0.10981751 </v>
   <v>       0.77590187       0.02771153      -0.01501185 </v>
   <v>       0.80240025      -0.00783282       0.08188991 </v>
   <v>       0.76808410       0.02936862       0.24108925 </v>
   <v>       0.80112750      -0.00058524       0.40899169 </v>
   <v>       0.80062098       0.20082738      -0.11787597 </v>
   <v>       0.80346310       0.19193028       0.02087268 </v>
   <v>       0.80704809       0.19707962       0.15161653 </v>
   <v>       0.80018796       0.19424513       0.27972515 </v>
   <v>       0.80289248       0.19956455       0.40216154 </v>
   <v>       0.79646153       0.40284807      -0.11103189 </v>
   <v>       0.79365070       0.40163020       0.00255744 </v>
   <v>       0.79711685       0.39956149       0.12008264 </v>
   <v>       0.77989477       0.39425527       0.22744604 </v>
   <v>       0.81046462       0.39432976       0.42150851 </v>
   <v>       0.79520167       0.60907343      -0.09688420 </v>
   <v>       0.80447532       0.59557770       0.01602502 </v>
   <v>       0.80215067       0.61751193       0.12466091 </v>
   <v>       0.79929124       0.59643536       0.23933972 </v>
   <v>       0.81827155       0.57396623       0.38795380 </v>
   <v>       0.79743040       0.79743040      -0.13130898 </v>
   <v>       0.79975370       0.79975370      -0.00692734 </v>
   <v>       0.80122458       0.80122458       0.15978902 </v>
   <v>       0.79374445       0.79374445       0.26526826 </v>
   <v>       0.79835582       0.79835582       0.37021109 </v>
   <v>       0.09898889       0.09898889      -0.04649017 </v>
   <v>       0.10337235       0.10337235       0.05285817 </v>
   <v>       0.08283888       0.08283888       0.16100316 </v>
   <v>       0.10912933       0.10912933       0.32681416 </v>
   <v>       0.05730288       0.05730288       0.46351985 </v>
   <v>       0.09692656       0.30549196      -0.04756359 </v>
   <v>       0.10512480       0.29819074       0.07214502 </v>
   <v>       0.10330888       0.29427160       0.18114752 </v>
   <v>       0.12166739       0.30423128       0.29772774 </v>
   <v>       0.05347054       0.29485447       0.46552168 </v>
   <v>       0.09863899       0.50896194      -0.02661229 </v>
   <v>       0.09466248       0.50499873       0.08093583 </v>
   <v>       0.11740279       0.50062194       0.20731973 </v>
   <v>       0.10620281       0.51361389       0.35282576 </v>
   <v>       0.15815822       0.50549891       0.53252906 </v>
   <v>       0.09053915       0.70642893      -0.06589476 </v>
   <v>       0.11147124       0.68277618       0.03069419 </v>
   <v>       0.08546064       0.71410975       0.14008550 </v>
   <v>       0.07219554       0.74553726       0.35500612 </v>
   <v>       0.07330986       0.73854734       0.52932737 </v>
   <v>       0.10533957       0.89571698      -0.04843587 </v>
   <v>       0.09623138       0.89424111       0.08692772 </v>
   <v>       0.10116844       0.86270377       0.21951993 </v>
   <v>       0.12312347       0.88524035       0.33200681 </v>
   <v>       0.09890803       0.91682425       0.45716748 </v>
   <v>       0.30549196       0.09692656      -0.04756359 </v>
   <v>       0.29819074       0.10512480       0.07214502 </v>
   <v>       0.29427160       0.10330888       0.18114752 </v>
   <v>       0.30423128       0.12166739       0.29772774 </v>
   <v>       0.29485447       0.05347054       0.46552168 </v>
   <v>       0.30107468       0.30107468      -0.04263408 </v>
   <v>       0.29146780       0.29146780       0.06452019 </v>
   <v>       0.30611621       0.30611621       0.21137925 </v>
   <v>       0.31444910       0.31444910       0.34590647 </v>
   <v>       0.33467266       0.33467266       0.45204502 </v>
   <v>       0.32445584       0.47541408      -0.07641655 </v>
   <v>       0.29205100       0.50738081       0.04169858 </v>
   <v>       0.28164912       0.50906866       0.14129085 </v>
   <v>       0.27532417       0.51366796       0.24032731 </v>
   <v>       0.18750405       0.60574255       0.51741819 </v>
   <v>       0.29723826       0.70628381      -0.04838656 </v>
   <v>       0.30216334       0.70020058       0.06683975 </v>
   <v>       0.31772690       0.66624835       0.18752638 </v>
   <v>       0.30613807       0.66784820       0.32104889 </v>
   <v>       0.27623196       0.69362572       0.46612704 </v>
   <v>       0.29711927       0.90520465      -0.03894568 </v>
   <v>       0.30416174       0.89792042       0.06878526 </v>
   <v>       0.29399901       0.89882133       0.18436182 </v>
   <v>       0.35621906       0.88114033       0.33280978 </v>
   <v>       0.31545464       0.92728314       0.47234076 </v>
   <v>       0.50896194       0.09863899      -0.02661229 </v>
   <v>       0.50499873       0.09466248       0.08093583 </v>
   <v>       0.50062194       0.11740279       0.20731973 </v>
   <v>       0.51361389       0.10620281       0.35282576 </v>
   <v>       0.50549891       0.15815822       0.53252906 </v>
   <v>       0.47541408       0.32445584      -0.07641655 </v>
   <v>       0.50738081       0.29205100       0.04169858 </v>
   <v>       0.50906866       0.28164912       0.14129085 </v>
   <v>       0.51366796       0.27532417       0.24032731 </v>
   <v>       0.60574255       0.18750405       0.51741819 </v>
   <v>       0.49454147       0.49454147      -0.02794224 </v>
   <v>       0.50595438       0.50595438       0.08370905 </v>
   <v>       0.49159102       0.49159102       0.21996427 </v>
   <v>       0.46825249       0.46825249       0.36322232 </v>
   <v>       0.44663333       0.44663333       0.53196120 </v>
   <v>       0.50213417       0.70053236      -0.04706318 </v>
   <v>       0.50467529       0.69887680       0.06435125 </v>
   <v>       0.50195499       0.69937353       0.17623519 </v>
   <v>       0.49746115       0.68548419       0.30145814 </v>
   <v>       0.49463600       0.66074106       0.45887149 </v>
   <v>       0.49065431       0.90898209      -0.05910264 </v>
   <v>       0.49214003       0.90179796       0.05748190 </v>
   <v>       0.50174313       0.92054359       0.16953852 </v>
   <v>       0.46618321       0.90791823       0.31797970 </v>
   <v>       0.58202441       0.87804926       0.46350928 </v>
   <v>       0.70642893       0.09053915      -0.06589476 </v>
   <v>       0.68277618       0.11147124       0.03069419 </v>
   <v>       0.71410975       0.08546064       0.14008550 </v>
   <v>       0.74553726       0.07219554       0.35500612 </v>
   <v>       0.73854734       0.07330986       0.52932737 </v>
   <v>       0.70628381       0.29723826      -0.04838656 </v>
   <v>       0.70020058       0.30216334       0.06683975 </v>
   <v>       0.66624835       0.31772690       0.18752638 </v>
   <v>       0.66784820       0.30613807       0.32104889 </v>
   <v>       0.69362572       0.27623196       0.46612704 </v>
   <v>       0.70053236       0.50213417      -0.04706318 </v>
   <v>       0.69887680       0.50467529       0.06435125 </v>
   <v>       0.69937353       0.50195499       0.17623519 </v>
   <v>       0.68548419       0.49746115       0.30145814 </v>
   <v>       0.66074106       0.49463600       0.45887149 </v>
   <v>       0.70341322       0.70341322      -0.02822504 </v>
   <v>       0.69796718       0.69796718       0.07018560 </v>
   <v>       0.70697181       0.70697181       0.18583275 </v>
   <v>       0.69180047       0.69180047       0.34935068 </v>
   <v>       0.69221616       0.69221616       0.45846366 </v>
   <v>       0.69391488       0.89844363      -0.06051575 </v>
   <v>       0.70665700       0.89229099       0.06746663 </v>
   <v>       0.71536517       0.92484471       0.21235865 </v>
   <v>       0.68265950       0.89366938       0.31053873 </v>
   <v>       0.63299902       0.97448930       0.46104914 </v>
   <v>       0.89571698       0.10533957      -0.04843587 </v>
   <v>       0.89424111       0.09623138       0.08692772 </v>
   <v>       0.86270377       0.10116844       0.21951993 </v>
   <v>       0.88524035       0.12312347       0.33200681 </v>
   <v>       0.91682425       0.09890803       0.45716748 </v>
   <v>       0.90520465       0.29711927      -0.03894568 </v>
   <v>       0.89792042       0.30416174       0.06878526 </v>
   <v>       0.89882133       0.29399901       0.18436182 </v>
   <v>       0.88114033       0.35621906       0.33280978 </v>
   <v>       0.92728314       0.31545464       0.47234076 </v>
   <v>       0.90898209       0.49065431      -0.05910264 </v>
   <v>       0.90179796       0.49214003       0.05748190 </v>
   <v>       0.92054359       0.50174313       0.16953852 </v>
   <v>       0.90791823       0.46618321       0.31797970 </v>
   <v>       0.87804926       0.58202441       0.46350928 </v>
   <v>       0.89844363       0.69391488      -0.06051575 </v>
   <v>       0.89229099       0.70665700       0.06746663 </v>
   <v>       0.92484471       0.71536517       0.21235865 </v>
   <v>       0.89366938       0.68265950       0.31053873 </v>
   <v>       0.97448930       0.63299902       0.46104914 </v>
   <v>       0.89474177       0.89474177      -0.04875254 </v>
   <v>       0.90574746       0.90574746       0.03169289 </v>
   <v>       0.90138844       0.90138844       0.13121234 </v>
   <v>       0.91076043       0.91076043       0.29214688 </v>
   <v>       0.87464707       0.87464707       0.44978401 </v>
   <v>       0.39619558       0.39619558       0.57236661 </v>
  </varray>
 </structure>
</modeling>
