NiAl                                    
            1
    10.541500    0.000000    0.000000
     5.270750    9.129207    0.000000
     0.000000    0.000000   28.541500
   Ni   O 
   125   126
Direct configuration=     1
   0.00000000  0.00000000  0.00000000
   0.00000000  0.00000000  0.07386788
   0.00000000  0.00000000  0.14773576
   0.00000000  0.00000000  0.22160364
   0.00000000  0.00000000  0.29547151
   0.00000000  0.20000000  0.00000000
   0.00000000  0.20000000  0.07386788
   0.00000000  0.20000000  0.14773576
   0.00000000  0.20000000  0.22160364
   0.00000000  0.20000000  0.29547151
   0.00000000  0.40000001  0.00000000
   0.00000000  0.40000001  0.07386788
   0.00000000  0.40000001  0.14773576
   0.00000000  0.40000001  0.22160364
   0.00000000  0.40000001  0.29547151
   0.00000000  0.60000002  0.00000000
   0.00000000  0.60000002  0.07386788
   0.00000000  0.60000002  0.14773576
   0.00000000  0.60000002  0.22160364
   0.00000000  0.60000002  0.29547151
   0.00000000  0.80000001  0.00000000
   0.00000000  0.80000001  0.07386788
   0.00000000  0.80000001  0.14773576
   0.00000000  0.80000001  0.22160364
   0.00000000  0.80000001  0.29547151
   0.20000000  0.00000000  0.00000000
   0.20000000  0.00000000  0.07386788
   0.20000000  0.00000000  0.14773576
   0.20000000  0.00000000  0.22160364
   0.20000000  0.00000000  0.29547151
   0.20000000  0.20000000  0.00000000
   0.20000000  0.20000000  0.07386788
   0.20000000  0.20000000  0.14773576
   0.20000000  0.20000000  0.22160364
   0.20000000  0.20000000  0.29547151
   0.20000000  0.40000001  0.00000000
   0.20000000  0.40000001  0.07386788
   0.20000000  0.40000001  0.14773576
   0.20000000  0.40000001  0.22160364
   0.20000000  0.40000001  0.29547151
   0.20000000  0.60000002  0.00000000
   0.20000000  0.60000002  0.07386788
   0.20000000  0.60000002  0.14773576
   0.20000000  0.60000002  0.22160364
   0.20000000  0.60000002  0.29547151
   0.20000000  0.80000001  0.00000000
   0.20000000  0.80000001  0.07386788
   0.20000000  0.80000001  0.14773576
   0.20000000  0.80000001  0.22160364
   0.20000000  0.80000001  0.29547151
   0.40000001  0.00000000  0.00000000
   0.40000001  0.00000000  0.07386788
   0.40000001  0.00000000  0.14773576
   0.40000001  0.00000000  0.22160364
   0.40000001  0.00000000  0.29547151
   0.40000001  0.20000000  0.00000000
   0.40000001  0.20000000  0.07386788
   0.40000001  0.20000000  0.14773576
   0.40000001  0.20000000  0.22160364
   0.40000001  0.20000000  0.29547151
   0.40000001  0.40000001  0.00000000
   0.40000001  0.40000001  0.07386788
   0.40000001  0.40000001  0.14773576
   0.40000001  0.40000001  0.22160364
   0.40000001  0.40000001  0.29547151
   0.40000001  0.60000002  0.00000000
   0.40000001  0.60000002  0.07386788
   0.40000001  0.60000002  0.14773576
   0.40000001  0.60000002  0.22160364
   0.40000001  0.60000002  0.29547151
   0.40000001  0.80000001  0.00000000
   0.40000001  0.80000001  0.07386788
   0.40000001  0.80000001  0.14773576
   0.40000001  0.80000001  0.22160364
   0.40000001  0.80000001  0.29547151
   0.60000002  0.00000000  0.00000000
   0.60000002  0.00000000  0.07386788
   0.60000002  0.00000000  0.14773576
   0.60000002  0.00000000  0.22160364
   0.60000002  0.00000000  0.29547151
   0.60000002  0.20000000  0.00000000
   0.60000002  0.20000000  0.07386788
   0.60000002  0.20000000  0.14773576
   0.60000002  0.20000000  0.22160364
   0.60000002  0.20000000  0.29547151
   0.60000002  0.40000001  0.00000000
   0.60000002  0.40000001  0.07386788
   0.60000002  0.40000001  0.14773576
   0.60000002  0.40000001  0.22160364
   0.60000002  0.40000001  0.29547151
   0.60000002  0.60000002  0.00000000
   0.60000002  0.60000002  0.07386788
   0.60000002  0.60000002  0.14773576
   0.60000002  0.60000002  0.22160364
   0.60000002  0.60000002  0.29547151
   0.60000002  0.80000001  0.00000000
   0.60000002  0.80000001  0.07386788
   0.60000002  0.80000001  0.14773576
   0.60000002  0.80000001  0.22160364
   0.60000002  0.80000001  0.29547151
   0.80000001  0.00000000  0.00000000
   0.80000001  0.00000000  0.07386788
   0.80000001  0.00000000  0.14773576
   0.80000001  0.00000000  0.22160364
   0.80000001  0.00000000  0.29547151
   0.80000001  0.20000000  0.00000000
   0.80000001  0.20000000  0.07386788
   0.80000001  0.20000000  0.14773576
   0.80000001  0.20000000  0.22160364
   0.80000001  0.20000000  0.29547151
   0.80000001  0.40000001  0.00000000
   0.80000001  0.40000001  0.07386788
   0.80000001  0.40000001  0.14773576
   0.80000001  0.40000001  0.22160364
   0.80000001  0.40000001  0.29547151
   0.80000001  0.60000002  0.00000000
   0.80000001  0.60000002  0.07386788
   0.80000001  0.60000002  0.14773576
   0.80000001  0.60000002  0.22160364
   0.80000001  0.60000002  0.29547151
   0.80000001  0.80000001  0.00000000
   0.80000001  0.80000001  0.07386788
   0.80000001  0.80000001  0.14773576
   0.80000001  0.80000001  0.22160364
   0.80000001  0.80000001  0.29547151
   0.10000000  0.10000000  0.03693394
   0.10000000  0.10000000  0.11080182
   0.10000000  0.10000000  0.18466969
   0.10000000  0.10000000  0.25853757
   0.10000000  0.10000000  0.33240544
   0.10000000  0.30000001  0.03693394
   0.10000000  0.30000001  0.11080182
   0.10000000  0.30000001  0.18466969
   0.10000000  0.30000001  0.25853757
   0.10000000  0.30000001  0.33240544
   0.10000000  0.50000000  0.03693394
   0.10000000  0.50000000  0.11080182
   0.10000000  0.50000000  0.18466969
   0.10000000  0.50000000  0.25853757
   0.10000000  0.50000000  0.33240544
   0.10000000  0.69999999  0.03693394
   0.10000000  0.69999999  0.11080182
   0.10000000  0.69999999  0.18466969
   0.10000000  0.69999999  0.25853757
   0.10000000  0.69999999  0.33240544
   0.10000000  0.89999998  0.03693394
   0.10000000  0.89999998  0.11080182
   0.10000000  0.89999998  0.18466969
   0.10000000  0.89999998  0.25853757
   0.10000000  0.89999998  0.33240544
   0.30000001  0.10000000  0.03693394
   0.30000001  0.10000000  0.11080182
   0.30000001  0.10000000  0.18466969
   0.30000001  0.10000000  0.25853757
   0.30000001  0.10000000  0.33240544
   0.30000001  0.30000001  0.03693394
   0.30000001  0.30000001  0.11080182
   0.30000001  0.30000001  0.18466969
   0.30000001  0.30000001  0.25853757
   0.30000001  0.30000001  0.33240544
   0.30000001  0.50000000  0.03693394
   0.30000001  0.50000000  0.11080182
   0.30000001  0.50000000  0.18466969
   0.30000001  0.50000000  0.25853757
   0.30000001  0.50000000  0.33240544
   0.30000001  0.69999999  0.03693394
   0.30000001  0.69999999  0.11080182
   0.30000001  0.69999999  0.18466969
   0.30000001  0.69999999  0.25853757
   0.30000001  0.69999999  0.33240544
   0.30000001  0.89999998  0.03693394
   0.30000001  0.89999998  0.11080182
   0.30000001  0.89999998  0.18466969
   0.30000001  0.89999998  0.25853757
   0.30000001  0.89999998  0.33240544
   0.50000000  0.10000000  0.03693394
   0.50000000  0.10000000  0.11080182
   0.50000000  0.10000000  0.18466969
   0.50000000  0.10000000  0.25853757
   0.50000000  0.10000000  0.33240544
   0.50000000  0.30000001  0.03693394
   0.50000000  0.30000001  0.11080182
   0.50000000  0.30000001  0.18466969
   0.50000000  0.30000001  0.25853757
   0.50000000  0.30000001  0.33240544
   0.50000000  0.50000000  0.03693394
   0.50000000  0.50000000  0.11080182
   0.50000000  0.50000000  0.18466969
   0.50000000  0.50000000  0.25853757
   0.50000000  0.50000000  0.33240544
   0.50000000  0.69999999  0.03693394
   0.50000000  0.69999999  0.11080182
   0.50000000  0.69999999  0.18466969
   0.50000000  0.69999999  0.25853757
   0.50000000  0.69999999  0.33240544
   0.50000000  0.89999998  0.03693394
   0.50000000  0.89999998  0.11080182
   0.50000000  0.89999998  0.18466969
   0.50000000  0.89999998  0.25853757
   0.50000000  0.89999998  0.33240544
   0.69999999  0.10000000  0.03693394
   0.69999999  0.10000000  0.11080182
   0.69999999  0.10000000  0.18466969
   0.69999999  0.10000000  0.25853757
   0.69999999  0.10000000  0.33240544
   0.69999999  0.30000001  0.03693394
   0.69999999  0.30000001  0.11080182
   0.69999999  0.30000001  0.18466969
   0.69999999  0.30000001  0.25853757
   0.69999999  0.30000001  0.33240544
   0.69999999  0.50000000  0.03693394
   0.69999999  0.50000000  0.11080182
   0.69999999  0.50000000  0.18466969
   0.69999999  0.50000000  0.25853757
   0.69999999  0.50000000  0.33240544
   0.69999999  0.69999999  0.03693394
   0.69999999  0.69999999  0.11080182
   0.69999999  0.69999999  0.18466969
   0.69999999  0.69999999  0.25853757
   0.69999999  0.69999999  0.33240544
   0.69999999  0.89999998  0.03693394
   0.69999999  0.89999998  0.11080182
   0.69999999  0.89999998  0.18466969
   0.69999999  0.89999998  0.25853757
   0.69999999  0.89999998  0.33240544
   0.89999998  0.10000000  0.03693394
   0.89999998  0.10000000  0.11080182
   0.89999998  0.10000000  0.18466969
   0.89999998  0.10000000  0.25853757
   0.89999998  0.10000000  0.33240544
   0.89999998  0.30000001  0.03693394
   0.89999998  0.30000001  0.11080182
   0.89999998  0.30000001  0.18466969
   0.89999998  0.30000001  0.25853757
   0.89999998  0.30000001  0.33240544
   0.89999998  0.50000000  0.03693394
   0.89999998  0.50000000  0.11080182
   0.89999998  0.50000000  0.18466969
   0.89999998  0.50000000  0.25853757
   0.89999998  0.50000000  0.33240544
   0.89999998  0.69999999  0.03693394
   0.89999998  0.69999999  0.11080182
   0.89999998  0.69999999  0.18466969
   0.89999998  0.69999999  0.25853757
   0.89999998  0.69999999  0.33240544
   0.89999998  0.89999998  0.03693394
   0.89999998  0.89999998  0.11080182
   0.89999998  0.89999998  0.18466969
   0.89999998  0.89999998  0.25853757
   0.89999998  0.89999998  0.33240544
   0.42141986  0.42141986  0.36744214
Direct configuration=     2
   0.00001956  0.00001956 -0.01881925
   0.00003312  0.00003312  0.07270082
   0.00000135  0.00000135  0.14784276
  -0.00000430 -0.00000430  0.22132039
  -0.00009283 -0.00009283  0.30211805
  -0.00002642  0.20002345 -0.01879773
  -0.00001771  0.20003081  0.07273737
  -0.00000039  0.20001333  0.14782315
   0.00003205  0.19997576  0.22134393
   0.00002515  0.19997731  0.30211881
   0.00002076  0.39998159 -0.01879774
   0.00000482  0.39998510  0.07273966
   0.00000926  0.39998401  0.14781836
  -0.00001068  0.39996711  0.22136504
   0.00020307  0.40010729  0.30213869
   0.00000758  0.59995807 -0.01880863
   0.00000002  0.59998072  0.07270487
  -0.00002233  0.60000573  0.14784434
   0.00009170  0.60007458  0.22132653
  -0.00020092  0.59969330  0.30206000
  -0.00001975  0.80000741 -0.01877522
  -0.00000833  0.79998140  0.07268061
   0.00015404  0.79987132  0.14779956
   0.00050115  0.79954660  0.22162307
  -0.00016537  0.80007675  0.30200182
   0.20002345 -0.00002642 -0.01879773
   0.20003081 -0.00001771  0.07273737
   0.20001333 -0.00000039  0.14782315
   0.19997576  0.00003205  0.22134393
   0.19997731  0.00002515  0.30211881
   0.20001461  0.20001461 -0.01878958
   0.19997560  0.19997560  0.07273975
   0.20001006  0.20001006  0.14781524
   0.20004412  0.20004412  0.22137204
   0.19993447  0.19993447  0.30213241
   0.20000150  0.40001033 -0.01879572
   0.19995331  0.39996699  0.07271446
   0.19999944  0.40001490  0.14784396
   0.19996829  0.39996154  0.22130655
   0.19938373  0.39962332  0.30220391
   0.19993801  0.60005669 -0.01879162
   0.19993743  0.60005608  0.07267607
   0.20009497  0.59987861  0.14786844
   0.20002531  0.59990257  0.22152249
   0.19888763  0.60201852  0.30128287
   0.20003261  0.79998504 -0.01881198
   0.20004272  0.80000948  0.07269452
   0.19999304  0.80001130  0.14784823
   0.20004979  0.79984590  0.22133162
   0.19971373  0.80048873  0.30198392
   0.39998159  0.00002076 -0.01879774
   0.39998510  0.00000482  0.07273966
   0.39998401  0.00000926  0.14781836
   0.39996711 -0.00001068  0.22136504
   0.40010729  0.00020307  0.30213869
   0.40001033  0.20000150 -0.01879572
   0.39996699  0.19995331  0.07271446
   0.40001490  0.19999944  0.14784396
   0.39996154  0.19996829  0.22130655
   0.39962332  0.19938373  0.30220391
   0.40000806  0.40000806 -0.01881537
   0.39998303  0.39998303  0.07266495
   0.40001116  0.40001116  0.14785524
   0.39998765  0.39998765  0.22130685
   0.39932883  0.39932883  0.29909634
   0.39998908  0.60000532 -0.01880486
   0.40000112  0.60004164  0.07269399
   0.39999232  0.60000521  0.14785967
   0.40000569  0.60007196  0.22126971
   0.39930270  0.60007296  0.30233799
   0.40003166  0.79997636 -0.01879612
   0.40001838  0.79999043  0.07273610
   0.40001175  0.79998059  0.14781732
   0.39995034  0.79999595  0.22132596
   0.39994347  0.80050733  0.30218574
   0.59995807  0.00000758 -0.01880863
   0.59998072  0.00000002  0.07270487
   0.60000573 -0.00002233  0.14784434
   0.60007458  0.00009170  0.22132653
   0.59969330 -0.00020092  0.30206000
   0.60005669  0.19993801 -0.01879162
   0.60005608  0.19993743  0.07267607
   0.59987861  0.20009497  0.14786844
   0.59990257  0.20002531  0.22152249
   0.60201852  0.19888763  0.30128287
   0.60000532  0.39998908 -0.01880486
   0.60004164  0.40000112  0.07269399
   0.60000521  0.39999232  0.14785967
   0.60007196  0.40000569  0.22126971
   0.60007296  0.39930270  0.30233799
   0.59998645  0.59998645 -0.01878870
   0.60002452  0.60002452  0.07274083
   0.59999085  0.59999085  0.14782513
   0.59999127  0.59999127  0.22130860
   0.60005866  0.60005866  0.30241573
   0.59999660  0.80000149 -0.01878658
   0.60000482  0.80000701  0.07274163
   0.60002076  0.80002904  0.14781351
   0.60003042  0.80001343  0.22134344
   0.60011913  0.79977464  0.30215896
   0.80000741 -0.00001975 -0.01877522
   0.79998140 -0.00000833  0.07268061
   0.79987132  0.00015404  0.14779956
   0.79954660  0.00050115  0.22162307
   0.80007675 -0.00016537  0.30200182
   0.79998504  0.20003261 -0.01881198
   0.80000948  0.20004272  0.07269452
   0.80001130  0.19999304  0.14784823
   0.79984590  0.20004979  0.22133162
   0.80048873  0.19971373  0.30198392
   0.79997636  0.40003166 -0.01879612
   0.79999043  0.40001838  0.07273610
   0.79998059  0.40001175  0.14781732
   0.79999595  0.39995034  0.22132596
   0.80050733  0.39994347  0.30218574
   0.80000149  0.59999660 -0.01878658
   0.80000701  0.60000482  0.07274163
   0.80002904  0.60002076  0.14781351
   0.80001343  0.60003042  0.22134344
   0.79977464  0.60011913  0.30215896
   0.79997873  0.79997873 -0.01881831
   0.79997279  0.79997279  0.07270756
   0.79998571  0.79998571  0.14784457
   0.80002143  0.80002143  0.22132286
   0.80006891  0.80006891  0.30210975
   0.09998416  0.09998416  0.03553567
   0.09998806  0.09998806  0.11129663
   0.10001096  0.10001096  0.18476014
   0.10000632  0.10000632  0.25799132
   0.09994802  0.09994802  0.34719068
   0.09999519  0.30000041  0.03551035
   0.10000224  0.30001290  0.11131176
   0.09999824  0.29999182  0.18475644
   0.10002919  0.30001428  0.25797817
   0.09993679  0.30012887  0.34716732
   0.10001100  0.50001505  0.03554298
   0.10000304  0.50000668  0.11131497
   0.09999697  0.50001041  0.18476336
   0.10016919  0.50011595  0.25800895
   0.10023638  0.50038002  0.34696125
   0.10007812  0.69993855  0.03551210
   0.09990680  0.70009753  0.11138031
   0.09978994  0.70023252  0.18454920
   0.09910424  0.70068643  0.25775802
   0.09994944  0.70020036  0.34731433
   0.09996939  0.89999458  0.03557008
   0.09996297  0.90003584  0.11131056
   0.10003676  0.89997399  0.18474535
   0.09991447  0.90000142  0.25800763
   0.10011645  0.89981538  0.34727605
   0.30000041  0.09999519  0.03551035
   0.30001290  0.10000224  0.11131176
   0.29999182  0.09999824  0.18475644
   0.30001428  0.10002919  0.25797817
   0.30012887  0.09993679  0.34716732
   0.30001071  0.30001071  0.03552888
   0.30001212  0.30001212  0.11132240
   0.30001479  0.30001479  0.18472214
   0.30013621  0.30013621  0.25797635
   0.29962557  0.29962557  0.34678279
   0.30006544  0.49993915  0.03556114
   0.29999148  0.50002689  0.11134546
   0.29992483  0.50007875  0.18465199
   0.30043488  0.49970127  0.25849934
   0.29840880  0.49694062  0.34819033
   0.29999421  0.69997867  0.03555774
   0.29997830  0.70000967  0.11132045
   0.29997371  0.70002705  0.18472783
   0.30014266  0.69971841  0.25805807
   0.29974275  0.70075193  0.34717420
   0.29996672  0.90002128  0.03552268
   0.29998226  0.90001629  0.11130691
   0.30004221  0.89996642  0.18477272
   0.29995896  0.89988887  0.25797487
   0.29993102  0.90004044  0.34721983
   0.50001505  0.10001100  0.03554298
   0.50000668  0.10000304  0.11131497
   0.50001041  0.09999697  0.18476336
   0.50011595  0.10016919  0.25800895
   0.50038002  0.10023638  0.34696125
   0.49993915  0.30006544  0.03556114
   0.50002689  0.29999148  0.11134546
   0.50007875  0.29992483  0.18465199
   0.49970127  0.30043488  0.25849934
   0.49694062  0.29840880  0.34819033
   0.49999687  0.49999687  0.03555355
   0.49999737  0.49999737  0.11131260
   0.49999291  0.49999291  0.18473025
   0.49988544  0.49988544  0.25807572
   0.50450135  0.50450135  0.34596983
   0.49998675  0.70000225  0.03550671
   0.49998637  0.70000785  0.11131740
   0.49999632  0.70001222  0.18476604
   0.49997452  0.69980051  0.25804786
   0.49986635  0.69988411  0.34698117
   0.50001949  0.89999253  0.03550768
   0.50001009  0.89998358  0.11131384
   0.50000078  0.89999732  0.18474941
   0.50001794  0.89997804  0.25801028
   0.50000706  0.90000330  0.34713814
   0.69993855  0.10007812  0.03551210
   0.70009753  0.09990680  0.11138031
   0.70023252  0.09978994  0.18454920
   0.70068643  0.09910424  0.25775802
   0.70020036  0.09994944  0.34731433
   0.69997867  0.29999421  0.03555774
   0.70000967  0.29997830  0.11132045
   0.70002705  0.29997371  0.18472783
   0.69971841  0.30014266  0.25805807
   0.70075193  0.29974275  0.34717420
   0.70000225  0.49998675  0.03550671
   0.70000785  0.49998637  0.11131740
   0.70001222  0.49999632  0.18476604
   0.69980051  0.49997452  0.25804786
   0.69988411  0.49986635  0.34698117
   0.70000682  0.70000682  0.03551239
   0.69998473  0.69998473  0.11130756
   0.69999624  0.69999624  0.18475982
   0.69996398  0.69996398  0.25798131
   0.69998646  0.69998646  0.34716756
   0.70003775  0.90000709  0.03556140
   0.70002588  0.89997842  0.11130237
   0.69996513  0.90002576  0.18476023
   0.70009627  0.89996365  0.25797087
   0.70002308  0.90015025  0.34727406
   0.89999458  0.09996939  0.03557008
   0.90003584  0.09996297  0.11131056
   0.89997399  0.10003676  0.18474535
   0.90000142  0.09991447  0.25800763
   0.89981538  0.10011645  0.34727605
   0.90002128  0.29996672  0.03552268
   0.90001629  0.29998226  0.11130691
   0.89996642  0.30004221  0.18477272
   0.89988887  0.29995896  0.25797487
   0.90004044  0.29993102  0.34721983
   0.89999253  0.50001949  0.03550768
   0.89998358  0.50001009  0.11131384
   0.89999732  0.50000078  0.18474941
   0.89997804  0.50001794  0.25801028
   0.90000330  0.50000706  0.34713814
   0.90000709  0.70003775  0.03556140
   0.89997842  0.70002588  0.11130237
   0.90002576  0.69996513  0.18476023
   0.89996365  0.70009627  0.25797087
   0.90015025  0.70002308  0.34727406
   0.90000443  0.90000443  0.03552404
   0.89999644  0.89999644  0.11140488
   0.89999292  0.89999292  0.18445922
   0.89999296  0.89999296  0.25802959
   0.90000836  0.90000836  0.34721956
   0.42217552  0.42217552  0.37169780
Direct configuration=     3
   0.00002702  0.00002702 -0.02599731
   0.00004575  0.00004575  0.07225568
   0.00000187  0.00000187  0.14788357
  -0.00000595 -0.00000595  0.22121236
  -0.00012824 -0.00012824  0.30465318
  -0.00003649  0.20003240 -0.02596758
  -0.00002446  0.20004256  0.07230618
  -0.00000054  0.20001842  0.14785649
   0.00004427  0.19996651  0.22124488
   0.00003475  0.19996866  0.30465423
   0.00002867  0.39997457 -0.02596759
   0.00000666  0.39997941  0.07230933
   0.00001279  0.39997791  0.14784986
  -0.00001475  0.39995456  0.22127403
   0.00028052  0.40014821  0.30468169
   0.00001046  0.59994207 -0.02598264
   0.00000002  0.59997336  0.07226127
  -0.00003084  0.60000791  0.14788575
   0.00012668  0.60010302  0.22122084
  -0.00027756  0.59957631  0.30457299
  -0.00002728  0.80001023 -0.02593648
  -0.00001150  0.79997430  0.07222776
   0.00021280  0.79982224  0.14782390
   0.00069230  0.79937366  0.22163049
  -0.00022845  0.80010602  0.30449262
   0.20003240 -0.00003649 -0.02596758
   0.20004256 -0.00002446  0.07230618
   0.20001842 -0.00000054  0.14785649
   0.19996651  0.00004427  0.22124488
   0.19996866  0.00003475  0.30465423
   0.20002018  0.20002018 -0.02595632
   0.19996630  0.19996630  0.07230945
   0.20001390  0.20001390  0.14784555
   0.20006095  0.20006095  0.22128371
   0.19990948  0.19990948  0.30467302
   0.20000207  0.40001427 -0.02596480
   0.19993550  0.39995440  0.07227452
   0.19999922  0.40002059  0.14788523
   0.19995620  0.39994687  0.22119323
   0.19914868  0.39947965  0.30477179
   0.19991437  0.60007830 -0.02595913
   0.19991357  0.60007746  0.07222149
   0.20013120  0.59983230  0.14791905
   0.20003497  0.59986539  0.22149154
   0.19846335  0.60278841  0.30349944
   0.20004504  0.79997932 -0.02598726
   0.20005901  0.80001309  0.07224698
   0.19999038  0.80001560  0.14789113
   0.20006878  0.79978712  0.22122786
   0.19960454  0.80067514  0.30446789
   0.39997457  0.00002867 -0.02596759
   0.39997941  0.00000666  0.07230933
   0.39997791  0.00001279  0.14784986
   0.39995456 -0.00001475  0.22127403
   0.40014821  0.00028052  0.30468169
   0.40001427  0.20000207 -0.02596480
   0.39995440  0.19993550  0.07227452
   0.40002059  0.19999922  0.14788523
   0.39994687  0.19995620  0.22119323
   0.39947965  0.19914868  0.30477179
   0.40001113  0.40001113 -0.02599195
   0.39997655  0.39997655  0.07220613
   0.40001541  0.40001541  0.14790081
   0.39998294  0.39998294  0.22119365
   0.39907282  0.39907282  0.30047892
   0.39998492  0.60000735 -0.02597742
   0.40000155  0.60005752  0.07224624
   0.39998938  0.60000719  0.14790694
   0.40000786  0.60009940  0.22114234
   0.39903674  0.60010078  0.30495702
   0.40004373  0.79996734 -0.02596535
   0.40002538  0.79998677  0.07230441
   0.40001623  0.79997318  0.14784843
   0.39993139  0.79999440  0.22122005
   0.39992191  0.80070084  0.30474669
   0.59994207  0.00001046 -0.02598264
   0.59997336  0.00000002  0.07226127
   0.60000791 -0.00003084  0.14788575
   0.60010302  0.00012668  0.22122084
   0.59957631 -0.00027756  0.30457299
   0.60007830  0.19991437 -0.02595913
   0.60007746  0.19991357  0.07222149
   0.59983230  0.20013120  0.14791905
   0.59986539  0.20003497  0.22149154
   0.60278841  0.19846335  0.30349944
   0.60000735  0.39998492 -0.02597742
   0.60005752  0.40000155  0.07224624
   0.60000719  0.39998938  0.14790694
   0.60009940  0.40000786  0.22114234
   0.60010078  0.39903674  0.30495702
   0.59998128  0.59998128 -0.02595511
   0.60003387  0.60003387  0.07231095
   0.59998735  0.59998735  0.14785921
   0.59998793  0.59998793  0.22119607
   0.60008102  0.60008102  0.30506440
   0.59999529  0.80000206 -0.02595218
   0.60000665  0.80000968  0.07231206
   0.60002867  0.80004011  0.14784316
   0.60004201  0.80001854  0.22124419
   0.60016457  0.79968867  0.30470969
   0.80001023 -0.00002728 -0.02593648
   0.79997430 -0.00001150  0.07222776
   0.79982224  0.00021280  0.14782390
   0.79937366  0.00069230  0.22163049
   0.80010602 -0.00022845  0.30449262
   0.79997932  0.20004504 -0.02598726
   0.80001309  0.20005901  0.07224698
   0.80001560  0.19999038  0.14789113
   0.79978712  0.20006878  0.22122786
   0.80067514  0.19960454  0.30446789
   0.79996734  0.40004373 -0.02596535
   0.79998677  0.40002538  0.07230441
   0.79997318  0.40001623  0.14784843
   0.79999440  0.39993139  0.22122005
   0.80070084  0.39992191  0.30474669
   0.80000206  0.59999529 -0.02595218
   0.80000968  0.60000665  0.07231206
   0.80004011  0.60002867  0.14784316
   0.80001854  0.60004201  0.22124419
   0.79968867  0.60016457  0.30470969
   0.79997061  0.79997061 -0.02599601
   0.79996241  0.79996241  0.07226499
   0.79998026  0.79998026  0.14788608
   0.80002960  0.80002960  0.22121576
   0.80009519  0.80009519  0.30464171
   0.09997812  0.09997812  0.03500233
   0.09998351  0.09998351  0.11148536
   0.10001514  0.10001514  0.18479463
   0.10000873  0.10000873  0.25778297
   0.09992819  0.09992819  0.35283008
   0.09999335  0.30000056  0.03496736
   0.10000309  0.30001781  0.11150626
   0.09999757  0.29998869  0.18478953
   0.10004032  0.30001972  0.25776481
   0.09991268  0.30017802  0.35279782
   0.10001520  0.50002080  0.03501245
   0.10000420  0.50000922  0.11151069
   0.09999582  0.50001438  0.18479908
   0.10023372  0.50016017  0.25780732
   0.10032654  0.50052497  0.35251315
   0.10010791  0.69991512  0.03496979
   0.09987124  0.70013474  0.11160096
   0.09970982  0.70032122  0.18450324
   0.09876258  0.70094825  0.25746068
   0.09993015  0.70027678  0.35300090
   0.09995771  0.89999252  0.03504988
   0.09994885  0.90004952  0.11150460
   0.10005078  0.89996408  0.18477421
   0.09988185  0.90000197  0.25780551
   0.10016087  0.89974497  0.35294802
   0.30000056  0.09999335  0.03496736
   0.30001781  0.10000309  0.11150626
   0.29998869  0.09999757  0.18478953
   0.30001972  0.10004032  0.25776481
   0.30017802  0.09991268  0.35279782
   0.30001478  0.30001478  0.03499296
   0.30001673  0.30001673  0.11152096
   0.30002043  0.30002043  0.18474215
   0.30018815  0.30018815  0.25776229
   0.29948274  0.29948274  0.35226662
   0.30009039  0.49991594  0.03503753
   0.29998822  0.50003715  0.11155281
   0.29989616  0.50010878  0.18464523
   0.30060074  0.49958732  0.25848476
   0.29780188  0.49577370  0.35421102
   0.29999200  0.69997053  0.03503283
   0.29997002  0.70001336  0.11151827
   0.29996368  0.70003737  0.18475001
   0.30019707  0.69961101  0.25787518
   0.29964462  0.70103874  0.35280732
   0.29995402  0.90002940  0.03498440
   0.29997549  0.90002252  0.11149957
   0.30005831  0.89995362  0.18481202
   0.29994331  0.89984650  0.25776025
   0.29990471  0.90005587  0.35287035
   0.50002080  0.10001520  0.03501245
   0.50000922  0.10000420  0.11151069
   0.50001438  0.09999582  0.18479908
   0.50016017  0.10023372  0.25780732
   0.50052497  0.10032654  0.35251315
   0.49991594  0.30009039  0.03503753
   0.50003715  0.29998822  0.11155281
   0.50010878  0.29989616  0.18464523
   0.49958732  0.30060074  0.25848476
   0.49577370  0.29780188  0.35421102
   0.49999567  0.49999567  0.03502704
   0.49999636  0.49999636  0.11150742
   0.49999021  0.49999021  0.18475334
   0.49984174  0.49984174  0.25789957
   0.50621826  0.50621826  0.35114358
   0.49998170  0.70000311  0.03496233
   0.49998117  0.70001085  0.11151405
   0.49999491  0.70001689  0.18480279
   0.49996481  0.69972443  0.25786107
   0.49981537  0.69983991  0.35254066
   0.50002693  0.89998969  0.03496367
   0.50001394  0.89997733  0.11150913
   0.50000108  0.89999630  0.18477982
   0.50002478  0.89996967  0.25780916
   0.50000975  0.90000456  0.35275751
   0.69991512  0.10010791  0.03496979
   0.70013474  0.09987124  0.11160096
   0.70032122  0.09970982  0.18450324
   0.70094825  0.09876258  0.25746068
   0.70027678  0.09993015  0.35300090
   0.69997053  0.29999200  0.03503283
   0.70001336  0.29997002  0.11151827
   0.70003737  0.29996368  0.18475001
   0.69961101  0.30019707  0.25787518
   0.70103874  0.29964462  0.35280732
   0.70000311  0.49998170  0.03496233
   0.70001085  0.49998117  0.11151405
   0.70001689  0.49999491  0.18480279
   0.69972443  0.49996481  0.25786107
   0.69983991  0.49981537  0.35254066
   0.70000942  0.70000942  0.03497018
   0.69997892  0.69997892  0.11150045
   0.69999481  0.69999481  0.18479420
   0.69995024  0.69995024  0.25776914
   0.69998130  0.69998130  0.35279815
   0.70005215  0.90000980  0.03503789
   0.70003576  0.89997020  0.11149329
   0.69995184  0.90003560  0.18479476
   0.70013300  0.89994979  0.25775472
   0.70003189  0.90020756  0.35294526
   0.89999252  0.09995771  0.03504988
   0.90004952  0.09994885  0.11150460
   0.89996408  0.10005078  0.18477421
   0.90000197  0.09988185  0.25780551
   0.89974497  0.10016087  0.35294802
   0.90002940  0.29995402  0.03498440
   0.90002252  0.29997549  0.11149957
   0.89995362  0.30005831  0.18481202
   0.89984650  0.29994331  0.25776025
   0.90005587  0.29990471  0.35287035
   0.89998969  0.50002693  0.03496367
   0.89997733  0.50001394  0.11150913
   0.89999630  0.50000108  0.18477982
   0.89996967  0.50002478  0.25780916
   0.90000456  0.50000975  0.35275751
   0.90000980  0.70005215  0.03503789
   0.89997020  0.70003576  0.11149329
   0.90003560  0.69995184  0.18479476
   0.89994979  0.70013300  0.25775472
   0.90020756  0.70003189  0.35294526
   0.90000613  0.90000613  0.03498627
   0.89999510  0.89999510  0.11163489
   0.89999023  0.89999023  0.18437893
   0.89999029  0.89999029  0.25783584
   0.90001156  0.90001156  0.35286998
   0.42246375  0.42246375  0.37332100
Direct configuration=     4
   0.00004195  0.00004195 -0.04035343
   0.00007101  0.00007101  0.07136540
   0.00000290  0.00000290  0.14796520
  -0.00000923 -0.00000923  0.22099628
  -0.00019905 -0.00019905  0.30972345
  -0.00005664  0.20005028 -0.04030728
  -0.00003797  0.20006606  0.07144378
  -0.00000084  0.20002859  0.14792316
   0.00006872  0.19994802  0.22104676
   0.00005393  0.19995134  0.30972508
   0.00004450  0.39996053 -0.04030730
   0.00001034  0.39996804  0.07144867
   0.00001986  0.39996570  0.14791287
  -0.00002289  0.39992947  0.22109201
   0.00043543  0.40023004  0.30976770
   0.00001624  0.59991007 -0.04033066
   0.00000003  0.59995863  0.07137408
  -0.00004787  0.60001227  0.14796859
   0.00019663  0.60015990  0.22100944
  -0.00043083  0.59934233  0.30959897
  -0.00004234  0.80001587 -0.04025901
  -0.00001785  0.79996010  0.07132207
   0.00033031  0.79972406  0.14787258
   0.00107460  0.79902778  0.22164531
  -0.00035461  0.80016457  0.30947421
   0.20005028 -0.00005664 -0.04030728
   0.20006606 -0.00003797  0.07144378
   0.20002859 -0.00000084  0.14792316