LAMMPS (24 Mar 2022)
OMP_NUM_THREADS environment is not set. Defaulting to 1 thread. (src/comm.cpp:98)
  using 1 OpenMP thread(s) per MPI task
Reading data file ...
  triclinic box = (0 0 0) to (10.5415 9.1292069 28.5415) with tilt (-5.27075 0 0)
  1 by 1 by 1 MPI processor grid
  reading atoms ...
  125 atoms
  read_data CPU = 0.000 seconds
WARNING: Using 'neigh_modify every 1 delay 0 check yes' setting during minimization (src/min.cpp:187)
Neighbor list info ...
  update every 1 steps, delay 0 steps, check yes
  max neighbors/atom: 2000, page size: 100000
  master list distance cutoff = 8.28721
  ghost atom cutoff = 8.28721
  binsize = 4.143605, bins = 4 3 7
  1 neighbor lists, perpetual/occasional/extra = 1 0 0
  (1) pair eam/alloy, perpetual
      attributes: half, newton on
      pair build: half/bin/newton/tri
      stencil: half/bin/3d/tri
      bin: standard
Setting up cg style minimization ...
  Unit style    : metal
  Current step  : 0
Per MPI rank memory allocation (min/avg/max) = 4.514 | 4.514 | 4.514 Mbytes
   Step          Temp          E_pair         E_mol          TotEng         Press     
         0   0             -338.52225      0             -338.52225      240188.96    
Loop time of 2.067e-06 on 1 procs for 0 steps with 125 atoms

145.1% CPU use with 1 MPI tasks x 1 OpenMP threads

Minimization stats:
  Stopping criterion = max iterations
  Energy initial, next-to-last, final = 
     -338.522247147391                  0  -338.522247147391
  Force two-norm initial, final = 2.7036105 2.7036105
  Force max component initial, final = 0.38673587 0.38673587
  Final line search alpha, max atom move = 0 0
  Iterations, force evaluations = 0 0

MPI task timing breakdown:
Section |  min time  |  avg time  |  max time  |%varavg| %total
---------------------------------------------------------------
Pair    | 0          | 0          | 0          |   0.0 |  0.00
Neigh   | 0          | 0          | 0          |   0.0 |  0.00
Comm    | 0          | 0          | 0          |   0.0 |  0.00
Output  | 0          | 0          | 0          |   0.0 |  0.00
Modify  | 0          | 0          | 0          |   0.0 |  0.00
Other   |            | 2.067e-06  |            |       |100.00

Nlocal:            125 ave         125 max         125 min
Histogram: 1 0 0 0 0 0 0 0 0 0
Nghost:           1639 ave        1639 max        1639 min
Histogram: 1 0 0 0 0 0 0 0 0 0
Neighs:           9700 ave        9700 max        9700 min
Histogram: 1 0 0 0 0 0 0 0 0 0

Total # of neighbors = 9700
Ave neighs/atom = 77.6
Neighbor list builds = 0
Dangerous builds = 0
Setting up Verlet run ...
  Unit style    : metal
  Current step  : 0
  Time step     : 0.01
Per MPI rank memory allocation (min/avg/max) = 4.394 | 4.394 | 4.394 Mbytes
   Step          Temp          E_pair         E_mol          TotEng         Press     
         0   300           -338.52225      0             -333.71377      242058.85    
       100   3355.9043     -387.59363      0             -333.80433     -30007.083    
       200   4127.8169     -400.12121      0             -333.95949     -18303.953    
       300   5391.4139     -420.57103      0             -334.15606      37249.302    
       400   4359.8279     -403.84084      0             -333.9604      -14717.994    
       500   4817.7302     -411.29364      0             -334.07382      1415.0756    
       600   4575.3478     -407.43642      0             -334.10156      2784.06      
       700   4881.6342     -412.4879       0             -334.24381      2412.6779    
       800   4484.8185     -405.97413      0             -334.0903      -17860.753    
       900   4932.9884     -413.23908      0             -334.17187     -9057.6774    
      1000   4790.9322     -410.954        0             -334.1637       1437.9791    
      1100   5207.9519     -417.54127      0             -334.06687      427.63455    
      1200   4503.1634     -406.17978      0             -334.00192     -21522.493    
      1300   4512.6317     -406.02105      0             -333.69143     -4647.5837    
      1400   4728.8107     -409.83295      0             -334.03835     -14334.894    
      1500   4728.6221     -409.91036      0             -334.11878     -672.31952    
      1600   4643.6163     -408.5725       0             -334.14342     -9397.7454    
      1700   4649.0926     -408.45599      0             -333.93914     -1241.6702    
      1800   4747.7646     -410.24363      0             -334.14523     -1589.3296    
      1900   4710.3557     -409.72919      0             -334.23039     -6439.1059    
      2000   4722.78       -409.72323      0             -334.02529     -1579.8764    
      2100   4346.5394     -403.91572      0             -334.24827      3312.3285    
      2200   4673.6327     -408.8324       0             -333.9222      -6422.7712    
      2300   4122.9476     -399.92326      0             -333.83959      505.43631    
      2400   4474.8447     -405.91459      0             -334.19063     -10408.876    
      2500   4562.3367     -407.00272      0             -333.87641     -8141.0924    
      2600   4585.2867     -407.77518      0             -334.28102      442.55609    
      2700   4552.0409     -406.99929      0             -334.038       -10028.142    
      2800   4724.8591     -409.83034      0             -334.09907      25121.039    
      2900   4856.5937     -411.91259      0             -334.06986     -7499.2675    
      3000   4789.3255     -411.04473      0             -334.28019      328.43385    
      3100   4571.4285     -407.38461      0             -334.11257     -13081.599    
      3200   4711.7758     -409.66094      0             -334.13938      3663.8059    
      3300   4796.3187     -410.9726       0             -334.09597     -17703.905    
      3400   4883.78       -412.53691      0             -334.25842     -5857.1454    
      3500   4774.2166     -410.63155      0             -334.10918     -2332.1063    
      3600   4630.4461     -408.15748      0             -333.93949     -5158.4706    
      3700   4354.5379     -403.70238      0             -333.90672      9648.0028    
      3800   4311.772      -403.28337      0             -334.17318     -18806.526    
      3900   4794.2782     -411.1146       0             -334.27068      3077.4385    
      4000   5085.2783     -415.98302      0             -334.47487      7671.829     
      4100   4285.1977     -402.62811      0             -333.94386     -26591.697    
      4200   5239.6574     -418.46585      0             -334.48327     -10061.386    
      4300   4664.5432     -408.87942      0             -334.11492     -3838.8701    
      4400   4364.533      -404.07869      0             -334.12283     -22363.052    
      4500   4897.7289     -412.79366      0             -334.2916       10001.463    
      4600   4574.0195     -407.57772      0             -334.26416      4625.598     
      4700   4164.3794     -400.58388      0             -333.83613     -24735.046    
      4800   4615.4791     -407.97853      0             -334.00044     -4141.0605    
      4900   5056.3971     -415.35124      0             -334.306        7970.8959    
      5000   4602.4558     -408.17737      0             -334.40802     -20835.401    
      5100   4729.7712     -409.86968      0             -334.05969     -12043.854    
      5200   4916.7221     -412.94818      0             -334.14169      1914.4501    
      5300   4163.2939     -400.76726      0             -334.03691     -1903.0831    
      5400   4914.0401     -413.09853      0             -334.33503     -7000.7494    
      5500   5310.7326     -419.48059      0             -334.3588      -6521.394     
      5600   4982.9841     -414.53766      0             -334.66911     -11140.271    
      5700   4578.1675     -407.45292      0             -334.07287     -14379.754    
      5800   4449.5884     -405.36269      0             -334.04354     -17.150616    
      5900   4373.6038     -404.2082       0             -334.10695     -9843.5892    
      6000   4940.1094     -413.60607      0             -334.42472      6937.118     
      6100   5039.1982     -415.16866      0             -334.39909     -561.12819    
      6200   4902.6068     -412.89858      0             -334.31834     -20290.076    
      6300   4485.895      -406.2577       0             -334.35662     -1934.3073    
      6400   4678.9418     -409.1312       0             -334.13591      10506.502    
      6500   4885.3784     -412.82922      0             -334.52511     -5923.6635    
      6600   4175.6878     -401.16378      0             -334.23478     -6157.2778    
      6700   4747.1234     -410.35596      0             -334.26784      7660.978     
      6800   4135.6531     -400.23759      0             -333.95028      499.60509    
      6900   4493.314      -406.36325      0             -334.34325     -13124.871    
      7000   4715.6679     -409.99656      0             -334.41262      3759.5062    
      7100   4716.0559     -409.67044      0             -334.08028     -14023.704    
      7200   4648.5383     -408.55974      0             -334.05177      13291.461    
      7300   4029.9613     -398.67254      0             -334.07928     -11168.361    
      7400   4341.644      -403.86056      0             -334.27157     -15313.594    
      7500   4865.0377     -412.15493      0             -334.17685      2355.0452    
      7600   5027.507      -415.08753      0             -334.50535      1443.9451    
      7700   4445.5766     -405.41155      0             -334.1567      -5974.3075    
      7800   4645.5041     -408.58001      0             -334.12068      3408.9592    
      7900   4161.1162     -400.61835      0             -333.92291      4200.7669    
      8000   4773.5131     -410.95173      0             -334.44063     -1836.5721    
      8100   4939.121      -413.42935      0             -334.26384     -115.52469    
      8200   4748.8637     -410.58064      0             -334.46462     -12719.726    
      8300   4666.86       -408.91396      0             -334.11232     -9811.9465    
      8400   4548.6212     -407.28516      0             -334.37869     -8019.5043    
      8500   4592.7829     -407.79212      0             -334.17782      10805.897    
      8600   4828.1941     -411.63691      0             -334.24937      1759.0117    
      8700   4642.8201     -408.80486      0             -334.38854      113.41354    
      8800   4800.4158     -411.30784      0             -334.36554     -4094.3819    
      8900   4872.2878     -412.35565      0             -334.26137     -1719.4299    
      9000   4943.8386     -413.56203      0             -334.32091     -23677.441    
      9100   4249.735      -402.32708      0             -334.21123     -8950.8419    
      9200   5051.159      -415.66837      0             -334.70709      7360.3297    
      9300   4749.7714     -410.49316      0             -334.3626       10391.846    
      9400   4516.2527     -406.74347      0             -334.35581     -5668.3223    
      9500   4453.1172     -405.63425      0             -334.25854      2050.9282    
      9600   4425.3924     -405.19035      0             -334.25901      3972.6626    
      9700   4545.0735     -407.33012      0             -334.48051     -10029.877    
      9800   4847.5635     -412.00086      0             -334.30287     -1143.8971    
      9900   4776.9879     -411.08304      0             -334.51624      7134.4758    
     10000   4538.1534     -406.89516      0             -334.15646     -24825.36     
Loop time of 3.5953 on 1 procs for 10000 steps with 125 atoms

Performance: 2403.135 ns/day, 0.010 hours/ns, 2781.407 timesteps/s
100.0% CPU use with 1 MPI tasks x 1 OpenMP threads

MPI task timing breakdown:
Section |  min time  |  avg time  |  max time  |%varavg| %total
---------------------------------------------------------------
Pair    | 2.9745     | 2.9745     | 2.9745     |   0.0 | 82.73
Neigh   | 0.4131     | 0.4131     | 0.4131     |   0.0 | 11.49
Comm    | 0.089585   | 0.089585   | 0.089585   |   0.0 |  2.49
Output  | 0.091606   | 0.091606   | 0.091606   |   0.0 |  2.55
Modify  | 0.011421   | 0.011421   | 0.011421   |   0.0 |  0.32
Other   |            | 0.01513    |            |       |  0.42

Nlocal:            125 ave         125 max         125 min
Histogram: 1 0 0 0 0 0 0 0 0 0
Nghost:           1536 ave        1536 max        1536 min
Histogram: 1 0 0 0 0 0 0 0 0 0
Neighs:           7901 ave        7901 max        7901 min
Histogram: 1 0 0 0 0 0 0 0 0 0

Total # of neighbors = 7901
Ave neighs/atom = 63.208
Neighbor list builds = 1000
Dangerous builds = 1000
System init for write_restart ...
Total wall time: 0:00:03
