 254 254   0   0
  0.3019211E+02  0.1718057E-08  0.1718057E-08  0.3000000E-08  0.5000000E-15
   1.0000000000000000E-004
  CAR 
 NiAl                                    
      5.81246055    -30.49833314  301      1.81284612      1.00000000
    -30.498  0.0000E+00  0.0000E+00
    -30.377  0.0000E+00  0.0000E+00
    -30.256  0.0000E+00  0.0000E+00
    -30.135  0.0000E+00  0.0000E+00
    -30.014  0.0000E+00  0.0000E+00
    -29.893  0.0000E+00  0.0000E+00
    -29.772  0.0000E+00  0.0000E+00
    -29.651  0.0000E+00  0.0000E+00
    -29.530  0.0000E+00  0.0000E+00
    -29.409  0.0000E+00  0.0000E+00
    -29.288  0.0000E+00  0.0000E+00
    -29.167  0.0000E+00  0.0000E+00
    -29.046  0.1544E-06  0.1869E-07
    -28.925  0.2294E+00  0.2776E-01
    -28.804  0.1446E+02  0.1778E+01
    -28.683  0.1830E+01  0.2000E+01
    -28.562  0.2801E-04  0.2000E+01
    -28.441  0.0000E+00  0.2000E+01
    -28.320  0.0000E+00  0.2000E+01
    -28.199  0.0000E+00  0.2000E+01
    -28.078  0.0000E+00  0.2000E+01
    -27.957  0.0000E+00  0.2000E+01
    -27.836  0.0000E+00  0.2000E+01
    -27.715  0.0000E+00  0.2000E+01
    -27.593  0.0000E+00  0.2000E+01
    -27.472  0.0000E+00  0.2000E+01
    -27.351  0.0000E+00  0.2000E+01
    -27.230  0.0000E+00  0.2000E+01
    -27.109  0.0000E+00  0.2000E+01
    -26.988  0.0000E+00  0.2000E+01
    -26.867  0.0000E+00  0.2000E+01
    -26.746  0.0000E+00  0.2000E+01
    -26.625  0.0000E+00  0.2000E+01
    -26.504  0.0000E+00  0.2000E+01
    -26.383  0.0000E+00  0.2000E+01
    -26.262  0.0000E+00  0.2000E+01
    -26.141  0.0000E+00  0.2000E+01
    -26.020  0.0000E+00  0.2000E+01
    -25.899  0.0000E+00  0.2000E+01
    -25.778  0.0000E+00  0.2000E+01
    -25.657  0.0000E+00  0.2000E+01
    -25.536  0.0000E+00  0.2000E+01
    -25.415  0.0000E+00  0.2000E+01
    -25.294  0.0000E+00  0.2000E+01
    -25.173  0.0000E+00  0.2000E+01
    -25.052  0.0000E+00  0.2000E+01
    -24.931  0.0000E+00  0.2000E+01
    -24.810  0.0000E+00  0.2000E+01
    -24.689  0.0000E+00  0.2000E+01
    -24.568  0.0000E+00  0.2000E+01
    -24.447  0.0000E+00  0.2000E+01
    -24.325  0.0000E+00  0.2000E+01
    -24.204  0.0000E+00  0.2000E+01
    -24.083  0.0000E+00  0.2000E+01
    -23.962  0.0000E+00  0.2000E+01
    -23.841  0.0000E+00  0.2000E+01
    -23.720  0.0000E+00  0.2000E+01
    -23.599  0.0000E+00  0.2000E+01
    -23.478  0.0000E+00  0.2000E+01
    -23.357  0.0000E+00  0.2000E+01
    -23.236  0.0000E+00  0.2000E+01
    -23.115  0.0000E+00  0.2000E+01
    -22.994  0.0000E+00  0.2000E+01
    -22.873  0.0000E+00  0.2000E+01
    -22.752  0.0000E+00  0.2000E+01
    -22.631  0.0000E+00  0.2000E+01
    -22.510  0.0000E+00  0.2000E+01
    -22.389  0.0000E+00  0.2000E+01
    -22.268  0.0000E+00  0.2000E+01
    -22.147  0.0000E+00  0.2000E+01
    -22.026  0.0000E+00  0.2000E+01
    -21.905  0.0000E+00  0.2000E+01
    -21.784  0.0000E+00  0.2000E+01
    -21.663  0.0000E+00  0.2000E+01
    -21.542  0.0000E+00  0.2000E+01
    -21.421  0.0000E+00  0.2000E+01
    -21.300  0.0000E+00  0.2000E+01
    -21.179  0.0000E+00  0.2000E+01
    -21.058  0.0000E+00  0.2000E+01
    -20.936  0.0000E+00  0.2000E+01
    -20.815  0.0000E+00  0.2000E+01
    -20.694  0.0000E+00  0.2000E+01
    -20.573  0.0000E+00  0.2000E+01
    -20.452  0.0000E+00  0.2000E+01
    -20.331  0.0000E+00  0.2000E+01
    -20.210  0.0000E+00  0.2000E+01
    -20.089  0.0000E+00  0.2000E+01
    -19.968  0.0000E+00  0.2000E+01
    -19.847  0.0000E+00  0.2000E+01
    -19.726  0.0000E+00  0.2000E+01
    -19.605  0.0000E+00  0.2000E+01
    -19.484  0.0000E+00  0.2000E+01
    -19.363  0.0000E+00  0.2000E+01
    -19.242  0.0000E+00  0.2000E+01
    -19.121  0.0000E+00  0.2000E+01
    -19.000  0.0000E+00  0.2000E+01
    -18.879  0.0000E+00  0.2000E+01
    -18.758  0.0000E+00  0.2000E+01
    -18.637  0.0000E+00  0.2000E+01
    -18.516  0.0000E+00  0.2000E+01
    -18.395  0.0000E+00  0.2000E+01
    -18.274  0.0000E+00  0.2000E+01
    -18.153  0.0000E+00  0.2000E+01
    -18.032  0.0000E+00  0.2000E+01
    -17.911  0.0000E+00  0.2000E+01
    -17.790  0.0000E+00  0.2000E+01
    -17.669  0.0000E+00  0.2000E+01
    -17.547  0.0000E+00  0.2000E+01
    -17.426  0.0000E+00  0.2000E+01
    -17.305  0.0000E+00  0.2000E+01
    -17.184  0.0000E+00  0.2000E+01
    -17.063  0.0000E+00  0.2000E+01
    -16.942  0.0000E+00  0.2000E+01
    -16.821  0.0000E+00  0.2000E+01
    -16.700  0.0000E+00  0.2000E+01
    -16.579  0.0000E+00  0.2000E+01
    -16.458  0.0000E+00  0.2000E+01
    -16.337  0.0000E+00  0.2000E+01
    -16.216  0.0000E+00  0.2000E+01
    -16.095  0.0000E+00  0.2000E+01
    -15.974  0.0000E+00  0.2000E+01
    -15.853  0.0000E+00  0.2000E+01
    -15.732  0.0000E+00  0.2000E+01
    -15.611  0.0000E+00  0.2000E+01
    -15.490  0.0000E+00  0.2000E+01
    -15.369  0.0000E+00  0.2000E+01
    -15.248  0.0000E+00  0.2000E+01
    -15.127  0.0000E+00  0.2000E+01
    -15.006  0.0000E+00  0.2000E+01
    -14.885  0.0000E+00  0.2000E+01
    -14.764  0.0000E+00  0.2000E+01
    -14.643  0.0000E+00  0.2000E+01
    -14.522  0.0000E+00  0.2000E+01
    -14.401  0.0000E+00  0.2000E+01
    -14.280  0.0000E+00  0.2000E+01
    -14.158  0.0000E+00  0.2000E+01
    -14.037  0.0000E+00  0.2000E+01
    -13.916  0.0000E+00  0.2000E+01
    -13.795  0.0000E+00  0.2000E+01
    -13.674  0.0000E+00  0.2000E+01
    -13.553  0.0000E+00  0.2000E+01
    -13.432  0.0000E+00  0.2000E+01
    -13.311  0.0000E+00  0.2000E+01
    -13.190  0.0000E+00  0.2000E+01
    -13.069  0.0000E+00  0.2000E+01
    -12.948  0.9414E-09  0.2000E+01
    -12.827  0.2062E-01  0.2002E+01
    -12.706  0.1081E+02  0.3311E+01
    -12.585  0.5695E+01  0.4000E+01
    -12.464  0.1089E-02  0.4000E+01
    -12.343  0.3537E-11  0.4000E+01
    -12.222  0.0000E+00  0.4000E+01
    -12.101  0.0000E+00  0.4000E+01
    -11.980  0.0000E+00  0.4000E+01
    -11.859  0.0000E+00  0.4000E+01
    -11.738  0.0000E+00  0.4000E+01
    -11.617  0.0000E+00  0.4000E+01
    -11.496  0.0000E+00  0.4000E+01
    -11.375  0.0000E+00  0.4000E+01
    -11.254  0.0000E+00  0.4000E+01
    -11.133  0.0000E+00  0.4000E+01
    -11.012  0.0000E+00  0.4000E+01
    -10.891  0.0000E+00  0.4000E+01
    -10.769  0.0000E+00  0.4000E+01
    -10.648  0.0000E+00  0.4000E+01
    -10.527  0.0000E+00  0.4000E+01
    -10.406  0.0000E+00  0.4000E+01
    -10.285  0.0000E+00  0.4000E+01
    -10.164  0.0000E+00  0.4000E+01
    -10.043  0.0000E+00  0.4000E+01
     -9.922  0.0000E+00  0.4000E+01
     -9.801  0.0000E+00  0.4000E+01
     -9.680  0.0000E+00  0.4000E+01
     -9.559  0.0000E+00  0.4000E+01
     -9.438  0.0000E+00  0.4000E+01
     -9.317  0.4150E-06  0.4000E+01
     -9.196  0.1581E+00  0.4019E+01
     -9.075  0.8882E+01  0.5094E+01
     -8.954  0.1829E+02  0.7308E+01
     -8.833  0.1799E+02  0.9486E+01
     -8.712  0.3209E+01  0.9874E+01
     -8.591  0.2699E+02  0.1314E+02
     -8.470  0.2930E+02  0.1669E+02
     -8.349  0.1910E+02  0.1900E+02
     -8.228  0.1864E+02  0.2126E+02
     -8.107  0.2780E+02  0.2462E+02
     -7.986  0.3112E+02  0.2839E+02
     -7.865  0.6461E+02  0.3621E+02
     -7.744  0.2423E+01  0.3650E+02
     -7.623  0.2583E+02  0.3963E+02
     -7.501  0.7322E+02  0.4849E+02
     -7.380  0.2223E+02  0.5118E+02
     -7.259  0.1795E+02  0.5335E+02
     -7.138  0.2609E+02  0.5651E+02
     -7.017  0.4110E+02  0.6149E+02
     -6.896  0.9908E+02  0.7348E+02
     -6.775  0.3204E+02  0.7736E+02
     -6.654  0.3935E+02  0.8212E+02
     -6.533  0.8616E+02  0.9255E+02
     -6.412  0.2671E+02  0.9578E+02
     -6.291  0.1936E+01  0.9601E+02
     -6.170  0.1109E+02  0.9736E+02
     -6.049  0.1035E+03  0.1099E+03
     -5.928  0.9489E+02  0.1214E+03
     -5.807  0.2619E+02  0.1245E+03
     -5.686  0.4522E+02  0.1300E+03
     -5.565  0.1072E+03  0.1430E+03
     -5.444  0.2993E+02  0.1466E+03
     -5.323  0.2659E+02  0.1498E+03
     -5.202  0.5685E+02  0.1567E+03
     -5.081  0.7267E+02  0.1655E+03
     -4.960  0.8012E+02  0.1752E+03
     -4.839  0.2421E+02  0.1781E+03
     -4.718  0.4631E+02  0.1837E+03
     -4.597  0.1198E+03  0.1982E+03
     -4.476  0.5109E+02  0.2044E+03
     -4.355  0.3557E+02  0.2087E+03
     -4.234  0.6446E+02  0.2165E+03
     -4.112  0.1213E+03  0.2312E+03
     -3.991  0.9011E+02  0.2421E+03
     -3.870  0.3025E+02  0.2458E+03
     -3.749  0.7713E+02  0.2551E+03
     -3.628  0.9184E+02  0.2662E+03
     -3.507  0.5355E+02  0.2727E+03
     -3.386  0.3785E+02  0.2773E+03
     -3.265  0.1545E+02  0.2792E+03
     -3.144  0.9002E+02  0.2901E+03
     -3.023  0.1074E+03  0.3031E+03
     -2.902  0.7709E+02  0.3124E+03
     -2.781  0.1447E+03  0.3299E+03
     -2.660  0.1550E+03  0.3487E+03
     -2.539  0.6866E+01  0.3495E+03
     -2.418  0.2302E+02  0.3523E+03
     -2.297  0.8666E+02  0.3628E+03
     -2.176  0.1091E+03  0.3760E+03
     -2.055  0.9403E+02  0.3874E+03
     -1.934  0.3851E+02  0.3920E+03
     -1.813  0.1018E+03  0.4044E+03
     -1.692  0.1391E+03  0.4212E+03
     -1.571  0.3793E+02  0.4258E+03
     -1.450  0.7675E+02  0.4351E+03
     -1.329  0.1075E+03  0.4481E+03
     -1.208  0.1270E+03  0.4634E+03
     -1.087  0.1086E+03  0.4766E+03
     -0.966  0.7119E+02  0.4852E+03
     -0.845  0.1036E+03  0.4978E+03
     -0.723  0.1024E+03  0.5101E+03
     -0.602  0.5159E+02  0.5164E+03
     -0.481  0.6891E+02  0.5247E+03
     -0.360  0.1968E+03  0.5486E+03
     -0.239  0.9764E+02  0.5604E+03
     -0.118  0.9404E+02  0.5718E+03
      0.003  0.3162E+02  0.5756E+03
      0.124  0.1037E+03  0.5881E+03
      0.245  0.9101E+02  0.5991E+03
      0.366  0.7767E+02  0.6085E+03
      0.487  0.1093E+03  0.6218E+03
      0.608  0.9814E+02  0.6337E+03
      0.729  0.6319E+02  0.6413E+03
      0.850  0.5263E+02  0.6477E+03
      0.971  0.1368E+03  0.6642E+03
      1.092  0.2027E+03  0.6888E+03
      1.213  0.1014E+03  0.7011E+03
      1.334  0.7604E+02  0.7103E+03
      1.455  0.8213E+02  0.7202E+03
      1.576  0.1229E+03  0.7351E+03
      1.697  0.1746E+03  0.7562E+03
      1.818  0.1003E+03  0.7683E+03
      1.939  0.5569E+02  0.7751E+03
      2.060  0.1542E+03  0.7937E+03
      2.181  0.8751E+02  0.8043E+03
      2.302  0.7403E+02  0.8133E+03
      2.423  0.7533E+02  0.8224E+03
      2.544  0.9361E+02  0.8337E+03
      2.666  0.1396E+03  0.8506E+03
      2.787  0.7510E+02  0.8597E+03
      2.908  0.1158E+03  0.8737E+03
      3.029  0.2751E+03  0.9070E+03
      3.150  0.9829E+02  0.9189E+03
      3.271  0.7284E+02  0.9278E+03
      3.392  0.1254E+03  0.9429E+03
      3.513  0.1433E+03  0.9603E+03
      3.634  0.7858E+02  0.9698E+03
      3.755  0.1111E+03  0.9832E+03
      3.876  0.6937E+02  0.9916E+03
      3.997  0.1554E+03  0.1010E+04
      4.118  0.1001E+03  0.1023E+04
      4.239  0.1193E+02  0.1024E+04
      4.360  0.8411E-01  0.1024E+04
      4.481  0.4804E-07  0.1024E+04
      4.602  0.0000E+00  0.1024E+04
      4.723  0.0000E+00  0.1024E+04
      4.844  0.0000E+00  0.1024E+04
      4.965  0.0000E+00  0.1024E+04
      5.086  0.0000E+00  0.1024E+04
      5.207  0.0000E+00  0.1024E+04
      5.328  0.0000E+00  0.1024E+04
      5.449  0.0000E+00  0.1024E+04
      5.570  0.0000E+00  0.1024E+04
      5.691  0.0000E+00  0.1024E+04
      5.812  0.0000E+00  0.1024E+04
