LAMMPS (24 Mar 2022)
OMP_NUM_THREADS environment is not set. Defaulting to 1 thread. (src/comm.cpp:98)
  using 1 OpenMP thread(s) per MPI task
Reading data file ...
  triclinic box = (0 0 0) to (15.146222 13.117013 40) with tilt (7.5731109 0 0)
  1 by 1 by 1 MPI processor grid
  reading atoms ...
  252 atoms
  read_data CPU = 0.001 seconds
WARNING: Using 'neigh_modify every 1 delay 0 check yes' setting during minimization (src/min.cpp:187)
Neighbor list info ...
  update every 1 steps, delay 0 steps, check yes
  max neighbors/atom: 2000, page size: 100000
  master list distance cutoff = 8.28721
  ghost atom cutoff = 8.28721
  binsize = 4.143605, bins = 6 4 10
  1 neighbor lists, perpetual/occasional/extra = 1 0 0
  (1) pair eam/alloy, perpetual
      attributes: half, newton on
      pair build: half/bin/newton/tri
      stencil: half/bin/3d/tri
      bin: standard
Setting up cg style minimization ...
  Unit style    : metal
  Current step  : 0
Per MPI rank memory allocation (min/avg/max) = 4.502 | 4.502 | 4.502 Mbytes
   Step          Temp          E_pair         E_mol          TotEng         Press     
         0   0             -1052.7128      0             -1052.7128     -17568.898    
Loop time of 3.053e-06 on 1 procs for 0 steps with 252 atoms

98.3% CPU use with 1 MPI tasks x 1 OpenMP threads

Minimization stats:
  Stopping criterion = max iterations
  Energy initial, next-to-last, final = 
     -1052.71283640767                  0  -1052.71283640767
  Force two-norm initial, final = 16.510076 16.510076
  Force max component initial, final = 2.0694932 2.0694932
  Final line search alpha, max atom move = 0 0
  Iterations, force evaluations = 0 0

MPI task timing breakdown:
Section |  min time  |  avg time  |  max time  |%varavg| %total
---------------------------------------------------------------
Pair    | 0          | 0          | 0          |   0.0 |  0.00
Neigh   | 0          | 0          | 0          |   0.0 |  0.00
Comm    | 0          | 0          | 0          |   0.0 |  0.00
Output  | 0          | 0          | 0          |   0.0 |  0.00
Modify  | 0          | 0          | 0          |   0.0 |  0.00
Other   |            | 3.053e-06  |            |       |100.00

Nlocal:            252 ave         252 max         252 min
Histogram: 1 0 0 0 0 0 0 0 0 0
Nghost:           1627 ave        1627 max        1627 min
Histogram: 1 0 0 0 0 0 0 0 0 0
Neighs:          19860 ave       19860 max       19860 min
Histogram: 1 0 0 0 0 0 0 0 0 0

Total # of neighbors = 19860
Ave neighs/atom = 78.809524
Neighbor list builds = 0
Dangerous builds = 0
Setting up Verlet run ...
  Unit style    : metal
  Current step  : 0
  Time step     : 0.01
Per MPI rank memory allocation (min/avg/max) = 4.387 | 4.387 | 4.387 Mbytes
   Step          Temp          E_pair         E_mol          TotEng         Press     
         0   300           -1052.7128      0             -1042.9795     -16260.682    
       100   345.75121     -1054.2274      0             -1043.0098     -14179.85     
       200   428.97022     -1057.0399      0             -1043.1223     -20151.484    
       300   484.92882     -1058.8783      0             -1043.1451     -21156.32     
       400   433.62543     -1057.1214      0             -1043.0527     -17975.156    
       500   445.7635      -1057.5253      0             -1043.0628     -12250.865    
       600   459.92545     -1058.0149      0             -1043.0929     -8721.1998    
       700   464.88126     -1058.1885      0             -1043.1058     -6285.9878    
       800   499.5976      -1059.2997      0             -1043.0906     -3933.586     
       900   475.43449     -1058.5584      0             -1043.1333     -4841.8957    
      1000   507.18556     -1059.5498      0             -1043.0945     -5835.4285    
      1100   499.96622     -1059.3592      0             -1043.1382     -7746.6268    
      1200   512.79341     -1059.7755      0             -1043.1383     -10786.317    
      1300   513.09634     -1059.7636      0             -1043.1165     -13944.749    
      1400   523.29502     -1060.1015      0             -1043.1235     -16145.993    
      1500   477.47779     -1058.5976      0             -1043.1062     -16305.914    
      1600   487.62145     -1058.9268      0             -1043.1062     -15818.998    
      1700   487.42461     -1058.8909      0             -1043.0767     -14152.255    
      1800   506.06694     -1059.5113      0             -1043.0924     -12443.046    
      1900   517.20871     -1059.9425      0             -1043.1621     -9210.937     
      2000   468.03121     -1058.2637      0             -1043.0788     -6682.1035    
      2100   498.44634     -1059.3286      0             -1043.1569     -8098.1762    
      2200   502.68751     -1059.4128      0             -1043.1035     -10692.214    
      2300   509.86961     -1059.6816      0             -1043.1393     -12089.999    
      2400   464.89455     -1058.1421      0             -1043.059      -13232.41     
      2500   522.92344     -1060.0644      0             -1043.0986     -14821.524    
      2600   480.63121     -1058.6919      0             -1043.0981     -13596.852    
      2700   489.40165     -1058.9579      0             -1043.0796     -12958.634    
      2800   497.27791     -1059.2403      0             -1043.1065     -11151.31     
      2900   496.77236     -1059.2354      0             -1043.118      -10642.307    
      3000   492.5728      -1059.0741      0             -1043.093      -9573.8228    
      3100   475.78109     -1058.5284      0             -1043.092      -8898.8404    
      3200   509.3032      -1059.6766      0             -1043.1526     -8466.1396    
      3300   482.78206     -1058.7788      0             -1043.1153     -7931.5224    
      3400   517.36093     -1059.9185      0             -1043.1331     -9764.5522    
      3500   479.54155     -1058.6553      0             -1043.097      -10972.849    
      3600   457.75223     -1057.9241      0             -1043.0727     -10787.67     
      3700   512.33515     -1059.757       0             -1043.1347     -12356.162    
      3800   498.32461     -1059.2688      0             -1043.101      -12020.044    
      3900   506.98804     -1059.5564      0             -1043.1076     -12062.766    
      4000   497.16883     -1059.2449      0             -1043.1146     -11306.724    
      4100   515.07207     -1059.8677      0             -1043.1566     -11344.949    
      4200   492.48587     -1059.1191      0             -1043.1407     -10749.57     
      4300   499.24309     -1059.3427      0             -1043.1451     -10150.865    
      4400   501.05973     -1059.3594      0             -1043.1028     -10545.791    
      4500   491.09842     -1059.0623      0             -1043.1289     -11520.501    
      4600   476.41876     -1058.5579      0             -1043.1009     -12710.463    
      4700   510.48174     -1059.7117      0             -1043.1495     -12747.507    
      4800   493.77623     -1059.1434      0             -1043.1232     -12378.631    
      4900   503.21489     -1059.4667      0             -1043.1403     -13407.704    
      5000   485.59416     -1058.8474      0             -1043.0927     -11894.347    
      5100   537.50741     -1060.6059      0             -1043.1669     -12000.777    
      5200   493.61321     -1059.127       0             -1043.112      -11189.848    
      5300   535.43788     -1060.5425      0             -1043.1706     -11092.995    
      5400   499.90907     -1059.3235      0             -1043.1043     -11476.937    
      5500   482.42524     -1058.7202      0             -1043.0682     -12558.931    
      5600   495.26009     -1059.1826      0             -1043.1142     -13130.88     
      5700   485.19129     -1058.8225      0             -1043.0809     -12757.149    
      5800   498.79743     -1059.3136      0             -1043.1305     -12510.715    
      5900   510.31806     -1059.6953      0             -1043.1384     -11635.29     
      6000   505.58515     -1059.518       0             -1043.1147     -10302.812    
      6100   505.43818     -1059.501       0             -1043.1024     -11362.55     
      6200   535.55132     -1060.5655      0             -1043.1899     -12293.652    
      6300   495.72257     -1059.2015      0             -1043.1181     -10122.348    
      6400   527.95569     -1060.2913      0             -1043.1622     -11487.997    
      6500   501.27066     -1059.399       0             -1043.1356     -10511.814    
      6600   497.95713     -1059.2835      0             -1043.1277     -12485.72     
      6700   497.55291     -1059.2653      0             -1043.1226     -12436.907    
      6800   476.57408     -1058.5373      0             -1043.0752     -12171.893    
      6900   511.80568     -1059.7431      0             -1043.1379     -13670.538    
      7000   511.60426     -1059.7603      0             -1043.1616     -13217.145    
      7100   508.29176     -1059.6447      0             -1043.1535     -12050.121    
      7200   546.04209     -1060.8823      0             -1043.1663     -12182.5      
      7300   506.54682     -1059.5485      0             -1043.114      -10307.517    
      7400   508.32546     -1059.5935      0             -1043.1012     -9867.1409    
      7500   505.3889      -1059.5144      0             -1043.1174     -9934.0014    
      7600   486.73796     -1058.8995      0             -1043.1076     -10025.754    
      7700   499.27881     -1059.3299      0             -1043.1312     -10981.311    
      7800   456.31904     -1057.8869      0             -1043.0819     -11435.192    
      7900   502.59703     -1059.4509      0             -1043.1445     -14021.025    
      8000   492.22955     -1059.0617      0             -1043.0916     -14517.842    
      8100   502.72734     -1059.4141      0             -1043.1034     -14531.886    
      8200   503.49182     -1059.4626      0             -1043.1272     -11965.291    
      8300   502.88399     -1059.4505      0             -1043.1348     -10702.003    
      8400   493.28929     -1059.1251      0             -1043.1207     -10032.409    
      8500   509.51115     -1059.6688      0             -1043.138      -10030.209    
      8600   533.46019     -1060.4779      0             -1043.1702     -11700.881    
      8700   507.94538     -1059.6207      0             -1043.1408     -11825.486    
      8800   485.5842      -1058.8447      0             -1043.0903     -10420.292    
      8900   486.08598     -1058.8865      0             -1043.1158     -12030.411    
      9000   503.19137     -1059.4495      0             -1043.1238     -13882.464    
      9100   511.71494     -1059.7206      0             -1043.1184     -13968.717    
      9200   537.98245     -1060.633       0             -1043.1785     -14424.224    
      9300   529.00736     -1060.3194      0             -1043.1562     -13074.837    
      9400   474.25491     -1058.4948      0             -1043.108      -11661.319    
      9500   488.24533     -1058.9397      0             -1043.0989     -12152.175    
      9600   505.9531      -1059.5268      0             -1043.1115     -11166.14     
      9700   495.45124     -1059.229       0             -1043.1545     -9579.4829    
      9800   487.79278     -1058.9182      0             -1043.0921     -9418.4269    
      9900   543.05719     -1060.7936      0             -1043.1745     -10126.894    
     10000   507.22291     -1059.5917      0             -1043.1353     -10173.539    
Loop time of 7.0196 on 1 procs for 10000 steps with 252 atoms

Performance: 1230.840 ns/day, 0.019 hours/ns, 1424.583 timesteps/s
99.8% CPU use with 1 MPI tasks x 1 OpenMP threads

MPI task timing breakdown:
Section |  min time  |  avg time  |  max time  |%varavg| %total
---------------------------------------------------------------
Pair    | 6.7173     | 6.7173     | 6.7173     |   0.0 | 95.69
Neigh   | 0          | 0          | 0          |   0.0 |  0.00
Comm    | 0.06548    | 0.06548    | 0.06548    |   0.0 |  0.93
Output  | 0.19584    | 0.19584    | 0.19584    |   0.0 |  2.79
Modify  | 0.02179    | 0.02179    | 0.02179    |   0.0 |  0.31
Other   |            | 0.01917    |            |       |  0.27

Nlocal:            252 ave         252 max         252 min
Histogram: 1 0 0 0 0 0 0 0 0 0
Nghost:           1627 ave        1627 max        1627 min
Histogram: 1 0 0 0 0 0 0 0 0 0
Neighs:          19860 ave       19860 max       19860 min
Histogram: 1 0 0 0 0 0 0 0 0 0

Total # of neighbors = 19860
Ave neighs/atom = 78.809524
Neighbor list builds = 0
Dangerous builds = 0
System init for write_restart ...
Total wall time: 0:00:07
