   4   4   0   0
  0.7621563E+03  0.1450000E-08  0.1450000E-08  0.1450000E-08  0.5000000E-15
   1.0000000000000000E-004
  CAR 
 NiAl                                    
      2.15560107    -35.02886709  301     -6.00948839      1.00000000
    -35.029  0.0000E+00  0.0000E+00
    -34.905  0.0000E+00  0.0000E+00
    -34.781  0.0000E+00  0.0000E+00
    -34.657  0.0000E+00  0.0000E+00
    -34.533  0.0000E+00  0.0000E+00
    -34.409  0.0000E+00  0.0000E+00
    -34.285  0.0000E+00  0.0000E+00
    -34.161  0.0000E+00  0.0000E+00
    -34.037  0.0000E+00  0.0000E+00
    -33.913  0.0000E+00  0.0000E+00
    -33.789  0.0000E+00  0.0000E+00
    -33.665  0.0000E+00  0.0000E+00
    -33.541  0.7787E-07  0.9652E-08
    -33.418  0.2072E+00  0.2568E-01
    -33.294  0.1430E+02  0.1798E+01
    -33.170  0.1633E+01  0.2000E+01
    -33.046  0.1410E-04  0.2000E+01
    -32.922  0.0000E+00  0.2000E+01
    -32.798  0.0000E+00  0.2000E+01
    -32.674  0.0000E+00  0.2000E+01
    -32.550  0.0000E+00  0.2000E+01
    -32.426  0.3211E-08  0.2000E+01
    -32.302  0.4822E-01  0.2006E+01
    -32.178  0.1246E+02  0.3551E+01
    -32.054  0.3624E+01  0.4000E+01
    -31.930  0.1631E-03  0.4000E+01
    -31.806  0.6449E-13  0.4000E+01
    -31.682  0.0000E+00  0.4000E+01
    -31.558  0.0000E+00  0.4000E+01
    -31.434  0.0000E+00  0.4000E+01
    -31.310  0.0000E+00  0.4000E+01
    -31.186  0.0000E+00  0.4000E+01
    -31.063  0.0000E+00  0.4000E+01
    -30.939  0.0000E+00  0.4000E+01
    -30.815  0.0000E+00  0.4000E+01
    -30.691  0.0000E+00  0.4000E+01
    -30.567  0.0000E+00  0.4000E+01
    -30.443  0.0000E+00  0.4000E+01
    -30.319  0.0000E+00  0.4000E+01
    -30.195  0.0000E+00  0.4000E+01
    -30.071  0.0000E+00  0.4000E+01
    -29.947  0.0000E+00  0.4000E+01
    -29.823  0.0000E+00  0.4000E+01
    -29.699  0.0000E+00  0.4000E+01
    -29.575  0.0000E+00  0.4000E+01
    -29.451  0.0000E+00  0.4000E+01
    -29.327  0.0000E+00  0.4000E+01
    -29.203  0.0000E+00  0.4000E+01
    -29.079  0.0000E+00  0.4000E+01
    -28.955  0.0000E+00  0.4000E+01
    -28.831  0.0000E+00  0.4000E+01
    -28.708  0.0000E+00  0.4000E+01
    -28.584  0.0000E+00  0.4000E+01
    -28.460  0.0000E+00  0.4000E+01
    -28.336  0.0000E+00  0.4000E+01
    -28.212  0.0000E+00  0.4000E+01
    -28.088  0.0000E+00  0.4000E+01
    -27.964  0.0000E+00  0.4000E+01
    -27.840  0.0000E+00  0.4000E+01
    -27.716  0.0000E+00  0.4000E+01
    -27.592  0.0000E+00  0.4000E+01
    -27.468  0.0000E+00  0.4000E+01
    -27.344  0.0000E+00  0.4000E+01
    -27.220  0.0000E+00  0.4000E+01
    -27.096  0.0000E+00  0.4000E+01
    -26.972  0.0000E+00  0.4000E+01
    -26.848  0.0000E+00  0.4000E+01
    -26.724  0.0000E+00  0.4000E+01
    -26.600  0.0000E+00  0.4000E+01
    -26.476  0.0000E+00  0.4000E+01
    -26.352  0.0000E+00  0.4000E+01
    -26.229  0.0000E+00  0.4000E+01
    -26.105  0.0000E+00  0.4000E+01
    -25.981  0.0000E+00  0.4000E+01
    -25.857  0.0000E+00  0.4000E+01
    -25.733  0.0000E+00  0.4000E+01
    -25.609  0.0000E+00  0.4000E+01
    -25.485  0.0000E+00  0.4000E+01
    -25.361  0.0000E+00  0.4000E+01
    -25.237  0.0000E+00  0.4000E+01
    -25.113  0.0000E+00  0.4000E+01
    -24.989  0.0000E+00  0.4000E+01
    -24.865  0.0000E+00  0.4000E+01
    -24.741  0.0000E+00  0.4000E+01
    -24.617  0.0000E+00  0.4000E+01
    -24.493  0.0000E+00  0.4000E+01
    -24.369  0.0000E+00  0.4000E+01
    -24.245  0.0000E+00  0.4000E+01
    -24.121  0.0000E+00  0.4000E+01
    -23.997  0.0000E+00  0.4000E+01
    -23.874  0.0000E+00  0.4000E+01
    -23.750  0.0000E+00  0.4000E+01
    -23.626  0.0000E+00  0.4000E+01
    -23.502  0.0000E+00  0.4000E+01
    -23.378  0.0000E+00  0.4000E+01
    -23.254  0.0000E+00  0.4000E+01
    -23.130  0.0000E+00  0.4000E+01
    -23.006  0.0000E+00  0.4000E+01
    -22.882  0.0000E+00  0.4000E+01
    -22.758  0.0000E+00  0.4000E+01
    -22.634  0.0000E+00  0.4000E+01
    -22.510  0.0000E+00  0.4000E+01
    -22.386  0.0000E+00  0.4000E+01
    -22.262  0.0000E+00  0.4000E+01
    -22.138  0.0000E+00  0.4000E+01
    -22.014  0.0000E+00  0.4000E+01
    -21.890  0.0000E+00  0.4000E+01
    -21.766  0.0000E+00  0.4000E+01
    -21.642  0.0000E+00  0.4000E+01
    -21.519  0.0000E+00  0.4000E+01
    -21.395  0.0000E+00  0.4000E+01
    -21.271  0.0000E+00  0.4000E+01
    -21.147  0.0000E+00  0.4000E+01
    -21.023  0.0000E+00  0.4000E+01
    -20.899  0.4030E-08  0.4000E+01
    -20.775  0.5371E-01  0.4007E+01
    -20.651  0.1263E+02  0.5572E+01
    -20.527  0.3454E+01  0.6000E+01
    -20.403  0.1390E-03  0.6000E+01
    -20.279  0.4837E-13  0.6000E+01
    -20.155  0.0000E+00  0.6000E+01
    -20.031  0.0000E+00  0.6000E+01
    -19.907  0.0000E+00  0.6000E+01
    -19.783  0.0000E+00  0.6000E+01
    -19.659  0.0000E+00  0.6000E+01
    -19.535  0.0000E+00  0.6000E+01
    -19.411  0.2462E-07  0.6000E+01
    -19.287  0.1242E+00  0.6015E+01
    -19.163  0.1376E+02  0.7721E+01
    -19.040  0.2250E+01  0.8000E+01
    -18.916  0.3601E-04  0.8000E+01
    -18.792  0.0000E+00  0.8000E+01
    -18.668  0.0000E+00  0.8000E+01
    -18.544  0.0000E+00  0.8000E+01
    -18.420  0.0000E+00  0.8000E+01
    -18.296  0.0000E+00  0.8000E+01
    -18.172  0.0000E+00  0.8000E+01
    -18.048  0.0000E+00  0.8000E+01
    -17.924  0.0000E+00  0.8000E+01
    -17.800  0.0000E+00  0.8000E+01
    -17.676  0.0000E+00  0.8000E+01
    -17.552  0.0000E+00  0.8000E+01
    -17.428  0.0000E+00  0.8000E+01
    -17.304  0.0000E+00  0.8000E+01
    -17.180  0.0000E+00  0.8000E+01
    -17.056  0.0000E+00  0.8000E+01
    -16.932  0.0000E+00  0.8000E+01
    -16.808  0.0000E+00  0.8000E+01
    -16.685  0.0000E+00  0.8000E+01
    -16.561  0.0000E+00  0.8000E+01
    -16.437  0.0000E+00  0.8000E+01
    -16.313  0.0000E+00  0.8000E+01
    -16.189  0.0000E+00  0.8000E+01
    -16.065  0.0000E+00  0.8000E+01
    -15.941  0.0000E+00  0.8000E+01
    -15.817  0.0000E+00  0.8000E+01
    -15.693  0.0000E+00  0.8000E+01
    -15.569  0.0000E+00  0.8000E+01
    -15.445  0.0000E+00  0.8000E+01
    -15.321  0.0000E+00  0.8000E+01
    -15.197  0.0000E+00  0.8000E+01
    -15.073  0.7618E-10  0.8000E+01
    -14.949  0.7555E-02  0.8001E+01
    -14.825  0.9319E+01  0.9156E+01
    -14.701  0.6807E+01  0.1000E+02
    -14.577  0.1722E-02  0.1000E+02
    -14.453  0.4568E-11  0.1000E+02
    -14.330  0.0000E+00  0.1000E+02
    -14.206  0.0000E+00  0.1000E+02
    -14.082  0.0000E+00  0.1000E+02
    -13.958  0.0000E+00  0.1000E+02
    -13.834  0.0000E+00  0.1000E+02
    -13.710  0.0000E+00  0.1000E+02
    -13.586  0.1252E-05  0.1000E+02
    -13.462  0.7410E+00  0.1009E+02
    -13.338  0.2811E+02  0.1358E+02
    -13.214  0.3420E+01  0.1400E+02
    -13.090  0.7106E-04  0.1400E+02
    -12.966  0.1675E-03  0.1400E+02
    -12.842  0.3653E+01  0.1445E+02
    -12.718  0.1244E+02  0.1599E+02
    -12.594  0.4734E-01  0.1600E+02
    -12.470  0.9008E-03  0.1600E+02
    -12.346  0.5811E+01  0.1672E+02
    -12.222  0.1031E+02  0.1800E+02
    -12.098  0.1327E-01  0.1800E+02
    -11.974  0.2308E-09  0.1800E+02
    -11.851  0.0000E+00  0.1800E+02
    -11.727  0.0000E+00  0.1800E+02
    -11.603  0.0000E+00  0.1800E+02
    -11.479  0.0000E+00  0.1800E+02
    -11.355  0.0000E+00  0.1800E+02
    -11.231  0.0000E+00  0.1800E+02
    -11.107  0.0000E+00  0.1800E+02
    -10.983  0.0000E+00  0.1800E+02
    -10.859  0.0000E+00  0.1800E+02
    -10.735  0.4192E-12  0.1800E+02
    -10.611  0.4673E-03  0.1800E+02
    -10.487  0.4891E+01  0.1861E+02
    -10.363  0.1122E+02  0.2000E+02
    -10.239  0.2247E-01  0.2000E+02
    -10.115  0.6644E-09  0.2000E+02
     -9.991  0.0000E+00  0.2000E+02
     -9.867  0.0000E+00  0.2000E+02
     -9.743  0.0000E+00  0.2000E+02
     -9.619  0.0000E+00  0.2000E+02
     -9.496  0.0000E+00  0.2000E+02
     -9.372  0.0000E+00  0.2000E+02
     -9.248  0.0000E+00  0.2000E+02
     -9.124  0.0000E+00  0.2000E+02
     -9.000  0.0000E+00  0.2000E+02
     -8.876  0.0000E+00  0.2000E+02
     -8.752  0.0000E+00  0.2000E+02
     -8.628  0.0000E+00  0.2000E+02
     -8.504  0.0000E+00  0.2000E+02
     -8.380  0.0000E+00  0.2000E+02
     -8.256  0.0000E+00  0.2000E+02
     -8.132  0.0000E+00  0.2000E+02
     -8.008  0.0000E+00  0.2000E+02
     -7.884  0.0000E+00  0.2000E+02
     -7.760  0.0000E+00  0.2000E+02
     -7.636  0.0000E+00  0.2000E+02
     -7.512  0.8816E-10  0.2000E+02
     -7.388  0.8142E-02  0.2000E+02
     -7.264  0.9451E+01  0.2117E+02
     -7.141  0.6675E+01  0.2200E+02
     -7.017  0.1584E-02  0.2200E+02
     -6.893  0.3912E-11  0.2200E+02
     -6.769  0.0000E+00  0.2200E+02
     -6.645  0.0000E+00  0.2200E+02
     -6.521  0.1208E-08  0.2200E+02
     -6.397  0.3011E-01  0.2200E+02
     -6.273  0.1171E+02  0.2346E+02
     -6.149  0.4393E+01  0.2400E+02
     -6.025  0.3169E-03  0.2400E+02
     -5.901  0.2078E-12  0.2400E+02
     -5.777  0.0000E+00  0.2400E+02
     -5.653  0.3270E-09  0.2400E+02
     -5.529  0.1581E-01  0.2400E+02
     -5.405  0.1062E+02  0.2532E+02
     -5.281  0.5503E+01  0.2600E+02
     -5.157  0.7286E-03  0.2600E+02
     -5.033  0.9387E-12  0.2600E+02
     -4.909  0.0000E+00  0.2600E+02
     -4.785  0.0000E+00  0.2600E+02
     -4.662  0.0000E+00  0.2600E+02
     -4.538  0.0000E+00  0.2600E+02
     -4.414  0.0000E+00  0.2600E+02
     -4.290  0.0000E+00  0.2600E+02
     -4.166  0.5457E-06  0.2600E+02
     -4.042  0.4724E+00  0.2606E+02
     -3.918  0.1480E+02  0.2789E+02
     -3.794  0.8590E+00  0.2800E+02
     -3.670  0.2465E-05  0.2800E+02
     -3.546  0.0000E+00  0.2800E+02
     -3.422  0.0000E+00  0.2800E+02
     -3.298  0.0000E+00  0.2800E+02
     -3.174  0.0000E+00  0.2800E+02
     -3.050  0.0000E+00  0.2800E+02
     -2.926  0.0000E+00  0.2800E+02
     -2.802  0.0000E+00  0.2800E+02
     -2.678  0.0000E+00  0.2800E+02
     -2.554  0.0000E+00  0.2800E+02
     -2.430  0.0000E+00  0.2800E+02
     -2.307  0.0000E+00  0.2800E+02
     -2.183  0.0000E+00  0.2800E+02
     -2.059  0.0000E+00  0.2800E+02
     -1.935  0.0000E+00  0.2800E+02
     -1.811  0.0000E+00  0.2800E+02
     -1.687  0.0000E+00  0.2800E+02
     -1.563  0.0000E+00  0.2800E+02
     -1.439  0.0000E+00  0.2800E+02
     -1.315  0.0000E+00  0.2800E+02
     -1.191  0.0000E+00  0.2800E+02
     -1.067  0.0000E+00  0.2800E+02
     -0.943  0.0000E+00  0.2800E+02
     -0.819  0.0000E+00  0.2800E+02
     -0.695  0.0000E+00  0.2800E+02
     -0.571  0.0000E+00  0.2800E+02
     -0.447  0.4980E-07  0.2800E+02
     -0.323  0.1702E+00  0.2802E+02
     -0.199  0.1411E+02  0.2977E+02
     -0.075  0.1858E+01  0.3000E+02
      0.048  0.2045E-04  0.3000E+02
      0.172  0.6838E-05  0.3000E+02
      0.296  0.1270E+01  0.3016E+02
      0.420  0.2615E+02  0.3340E+02
      0.544  0.2078E+02  0.3597E+02
      0.668  0.2084E+00  0.3600E+02
      0.792  0.7787E-07  0.3600E+02
      0.916  0.0000E+00  0.3600E+02
      1.040  0.0000E+00  0.3600E+02
      1.164  0.0000E+00  0.3600E+02
      1.288  0.0000E+00  0.3600E+02
      1.412  0.0000E+00  0.3600E+02
      1.536  0.0000E+00  0.3600E+02
      1.660  0.0000E+00  0.3600E+02
      1.784  0.0000E+00  0.3600E+02
      1.908  0.0000E+00  0.3600E+02
      2.032  0.0000E+00  0.3600E+02
      2.156  0.0000E+00  0.3600E+02
