    4    4    1    1
  0.7621563E+03  0.1450000E-08  0.1450000E-08  0.1450000E-08  0.5000000E-15
   1.0000000000000000E-004
  CAR 
 NiAl                                    
     24      1     18
 
  0.1262379E-14  0.1262379E-14  0.1262379E-14  0.1000000E+01
      1        -33.338664   1.000000
      2        -32.204813   1.000000
      3        -20.678885   1.000000
      4        -19.201775   1.000000
      5        -14.832264   1.000000
      6        -13.400283   1.000000
      7        -13.371237   1.000000
      8        -12.815592   1.000000
      9        -12.333685   1.000000
     10        -10.468898   1.000000
     11         -7.272166   1.000000
     12         -6.294299   1.000000
     13         -5.419717   0.000000
     14         -3.974934   0.000000
     15         -0.241826   0.000000
     16          0.346522   0.000000
     17          0.409865   0.000000
     18          0.465398   0.000000
