          12
 Energy:  -18.776782200000000      en  -18.735032199999999      edisp  -4.1750000000000002E-002
 X   0.00000000       0.00000000       0.00000000    
 X   14.5000000       0.00000000       0.00000000    
 X   0.00000000       14.5000000       0.00000000    
 X   0.00000000       0.00000000       14.5000000    
 X   14.5000000       14.5000000       0.00000000    
 X   14.5000000       0.00000000       14.5000000    
 X   0.00000000       14.5000000       14.5000000    
 X   14.5000000       14.5000000       14.5000000    
 O    0.00000000       0.00000000       0.00000000    
 O    1.20700002       0.00000000       0.00000000    
 O    0.00000000       0.00000000       2.00000000    
 O    1.20700002       0.00000000       2.00000000    
