       N       E                     dE             d eps       ncg     rms          rms(c)
DAV:   1     0.169909248927E+03    0.16991E+03   -0.48612E+03    60   0.514E+02
DAV:   2     0.307417323339E+02   -0.13917E+03   -0.13803E+03    66   0.169E+02
DAV:   3    -0.129949473896E+02   -0.43737E+02   -0.42216E+02    72   0.678E+01
DAV:   4    -0.190465623132E+02   -0.60516E+01   -0.59758E+01    60   0.237E+01
DAV:   5    -0.192198528180E+02   -0.17329E+00   -0.12911E+00    54   0.350E+00    0.606E+01
DAV:   6    -0.187364235822E+02    0.48343E+00   -0.56480E-01    42   0.686E+00    0.374E+01
DAV:   7    -0.187467967416E+02   -0.10373E-01   -0.82209E-01    42   0.786E+00    0.119E+00
DAV:   8    -0.187334575804E+02    0.13339E-01   -0.12614E-01    36   0.323E+00    0.445E-01
DAV:   9    -0.187339813548E+02   -0.52377E-03   -0.29130E-03    60   0.507E-01    0.217E-01
DAV:  10    -0.187342988416E+02   -0.31749E-03   -0.41557E-04    60   0.193E-01    0.873E-02
DAV:  11    -0.187343957031E+02   -0.96862E-04   -0.13039E-05    48   0.274E-02    0.327E-02
DAV:  12    -0.187345907175E+02   -0.19501E-03   -0.34947E-05    48   0.468E-02    0.108E-02
DAV:  13    -0.187347678858E+02   -0.17717E-03   -0.70865E-06    60   0.127E-02    0.778E-03
DAV:  14    -0.187348860364E+02   -0.11815E-03   -0.87533E-06    48   0.135E-02    0.209E-03
DAV:  15    -0.187349677782E+02   -0.81742E-04   -0.32672E-06    54   0.898E-03    0.933E-04
DAV:  16    -0.187349989114E+02   -0.31133E-04   -0.60778E-07    60   0.343E-03    0.778E-04
DAV:  17    -0.187350244587E+02   -0.25547E-04   -0.36758E-07    48   0.295E-03    0.409E-04
DAV:  18    -0.187350298835E+02   -0.54248E-05   -0.35656E-08    30   0.167E-03    0.234E-04
DAV:  19    -0.187350315761E+02   -0.16925E-05   -0.20124E-08    36   0.146E-03    0.338E-04
DAV:  20    -0.187350320684E+02   -0.49233E-06   -0.15493E-08    36   0.899E-04    0.507E-05
DAV:  21    -0.187350322019E+02   -0.13346E-06   -0.67982E-09    36   0.685E-04    0.112E-04
DAV:  22    -0.187350322050E+02   -0.31937E-08   -0.34603E-09    36   0.420E-04
   1 F= -.18776778E+02 E0= -.18776778E+02  d E =-.228513E-15
