<?xml version="1.0" encoding="ISO-8859-1"?>
<modeling>
 <generator>
  <i name="program" type="string">vasp </i>
  <i name="version" type="string">6.3.1  </i>
  <i name="subversion" type="string">04May22 (build Jun 29 2022 13:52:15) complex                          parallel </i>
  <i name="platform" type="string">LinuxNV </i>
  <i name="date" type="string">2022 10 05 </i>
  <i name="time" type="string">18:51:03 </i>
 </generator>
 <incar>
  <i type="string" name="SYSTEM">NiAl</i>
  <i type="int" name="ISTART">     0</i>
  <i type="int" name="NELMIN">     6</i>
  <i name="EDIFF">      0.00000010</i>
  <i name="ENCUT">    360.00000000</i>
  <i type="string" name="LREAL">Auto</i>
  <i type="logical" name="LPLANE"> T  </i>
  <i type="int" name="ISMEAR">     0</i>
  <i name="SIGMA">      0.05000000</i>
  <i type="logical" name="LWAVE"> F  </i>
  <i type="logical" name="LCHARG"> F  </i>
  <i type="int" name="IVDW">    12</i>
 </incar>
 <primitive_cell>
  <structure name="primitive_cell" >
   <crystal>
    <varray name="basis" >
     <v>      14.50000000       0.00000000       0.00000000 </v>
     <v>       0.00000000      14.50000000       0.00000000 </v>
     <v>       0.00000000       0.00000000      14.50000000 </v>
    </varray>
    <i name="volume">   3048.62500000 </i>
    <varray name="rec_basis" >
     <v>       0.06896552       0.00000000       0.00000000 </v>
     <v>       0.00000000       0.06896552       0.00000000 </v>
     <v>       0.00000000       0.00000000       0.06896552 </v>
    </varray>
   </crystal>
   <varray name="positions" >
    <v>       0.00000000       0.00000000       0.00000000 </v>
    <v>       0.08324138       0.00000000       0.00000000 </v>
    <v>       0.00000000       0.00000000       0.13793103 </v>
    <v>       0.08324138       0.00000000       0.13793103 </v>
   </varray>
  </structure>
  <varray name="primitive_index" >
   <v type="int" >        1 </v>
   <v type="int" >        2 </v>
   <v type="int" >        3 </v>
   <v type="int" >        4 </v>
  </varray>
 </primitive_cell>
 <kpoints>
  <generation param="Gamma">
   <v type="int" name="divisions">       1        1        1 </v>
   <v name="usershift">      0.00000000       0.00000000       0.00000000 </v>
   <v name="genvec1">      1.00000000       0.00000000       0.00000000 </v>
   <v name="genvec2">      0.00000000       1.00000000       0.00000000 </v>
   <v name="genvec3">      0.00000000       0.00000000       1.00000000 </v>
   <v name="shift">      0.00000000       0.00000000       0.00000000 </v>
  </generation>
  <varray name="kpointlist" >
   <v>       0.00000000       0.00000000       0.00000000 </v>
  </varray>
  <varray name="weights" >
   <v>       1.00000000 </v>
  </varray>
 </kpoints>
 <parameters>
  <separator name="general" >
   <i type="string" name="SYSTEM">NiAl</i>
   <i type="logical" name="LCOMPAT"> F  </i>
  </separator>
  <separator name="electronic" >
   <i type="string" name="PREC">normal</i>
   <i name="ENMAX">    360.00000000</i>
   <i name="ENAUG">   1139.60900000</i>
   <i name="EDIFF">      0.00000010</i>
   <i type="int" name="IALGO">    38</i>
   <i type="int" name="IWAVPR">    10</i>
   <i type="int" name="NBANDS">    18</i>
   <i type="int" name="NBANDSLOW">    -1</i>
   <i type="int" name="NBANDSHIGH">    -1</i>
   <i name="NELECT">     24.00000000</i>
   <i type="int" name="TURBO">     0</i>
   <i type="int" name="IRESTART">     0</i>
   <i type="int" name="NREBOOT">     0</i>
   <i type="int" name="NMIN">     0</i>
   <i name="EREF">      0.00000000</i>
   <separator name="electronic smearing" >
    <i type="int" name="ISMEAR">     0</i>
    <i name="SIGMA">      0.05000000</i>
    <i name="KSPACING">      0.50000000</i>
    <i type="logical" name="KGAMMA"> T  </i>
    <i type="logical" name="KBLOWUP"> T  </i>
   </separator>
   <separator name="electronic projectors" >
    <i type="logical" name="LREAL"> T  </i>
    <v name="ROPT">     -0.00050000</v>
    <i type="int" name="LMAXPAW">  -100</i>
    <i type="int" name="LMAXMIX">     2</i>
    <i type="logical" name="NLSPLINE"> F  </i>
   </separator>
   <separator name="electronic startup" >
    <i type="int" name="ISTART">     0</i>
    <i type="int" name="ICHARG">     2</i>
    <i type="int" name="INIWAV">     1</i>
   </separator>
   <separator name="electronic spin" >
    <i type="int" name="ISPIN">     1</i>
    <i type="logical" name="LNONCOLLINEAR"> F  </i>
    <v name="MAGMOM">      1.00000000      1.00000000      1.00000000      1.00000000</v>
    <i name="NUPDOWN">     -1.00000000</i>
    <i type="logical" name="LSORBIT"> F  </i>
    <v name="SAXIS">      0.00000000      0.00000000      1.00000000</v>
    <i type="logical" name="LSPIRAL"> F  </i>
    <v name="QSPIRAL">      0.00000000      0.00000000      0.00000000</v>
    <i type="logical" name="LZEROZ"> F  </i>
   </separator>
   <separator name="electronic exchange-correlation" >
    <i type="logical" name="LASPH"> F  </i>
    <i type="logical" name="LMETAGGA"> F  </i>
   </separator>
   <separator name="electronic convergence" >
    <i type="int" name="NELM">    60</i>
    <i type="int" name="NELMDL">    -5</i>
    <i type="int" name="NELMIN">     6</i>
    <i name="ENINI">    360.00000000</i>
    <separator name="electronic convergence detail" >
     <i type="logical" name="LDIAG"> T  </i>
     <i type="logical" name="LSUBROT"> F  </i>
     <i name="WEIMIN">      0.00000000</i>
     <i name="EBREAK">      0.00000000</i>
     <i name="DEPER">      0.30000000</i>
     <i type="int" name="NRMM">     4</i>
     <i name="TIME">      0.40000000</i>
    </separator>
   </separator>
   <separator name="electronic mixer" >
    <i name="AMIX">      0.40000000</i>
    <i name="BMIX">      1.00000000</i>
    <i name="AMIN">      0.10000000</i>
    <i name="AMIX_MAG">      1.60000000</i>
    <i name="BMIX_MAG">      1.00000000</i>
    <separator name="electronic mixer details" >
     <i type="int" name="IMIX">     4</i>
     <i type="logical" name="MIXFIRST"> F  </i>
     <i type="int" name="MAXMIX">   -45</i>
     <i name="WC">    100.00000000</i>
     <i type="int" name="INIMIX">     1</i>
     <i type="int" name="MIXPRE">     1</i>
     <i type="int" name="MREMOVE">     5</i>
    </separator>
   </separator>
   <separator name="electronic dipolcorrection" >
    <i type="logical" name="LDIPOL"> F  </i>
    <i type="logical" name="LMONO"> F  </i>
    <i type="int" name="IDIPOL">     0</i>
    <i name="EPSILON">      1.00000000</i>
    <v name="DIPOL">   -100.00000000   -100.00000000   -100.00000000</v>
    <i name="EFIELD">      0.00000000</i>
   </separator>
  </separator>
  <separator name="grids" >
   <i type="int" name="NGX">    70</i>
   <i type="int" name="NGY">    70</i>
   <i type="int" name="NGZ">    70</i>
   <i type="int" name="NGXF">   140</i>
   <i type="int" name="NGYF">   140</i>
   <i type="int" name="NGZF">   140</i>
   <i type="logical" name="ADDGRID"> F  </i>
  </separator>
  <separator name="ionic" >
   <i type="int" name="NSW">     0</i>
   <i type="int" name="IBRION">    -1</i>
   <i type="int" name="MDALGO">     0</i>
   <i type="int" name="ISIF">     2</i>
   <i name="PSTRESS">      0.00000000</i>
   <i name="EDIFFG">      0.00000100</i>
   <i type="int" name="NFREE">     0</i>
   <i name="POTIM">      0.50000000</i>
   <i name="SMASS">     -3.00000000</i>
   <i name="SCALEE">      1.00000000</i>
  </separator>
  <separator name="ionic md" >
   <i name="TEBEG">      0.00010000</i>
   <i name="TEEND">      0.00010000</i>
   <i type="int" name="NBLOCK">     1</i>
   <i type="int" name="KBLOCK">     1</i>
   <i type="int" name="NPACO">   256</i>
   <i name="APACO">     10.00000000</i>
  </separator>
  <separator name="symmetry" >
   <i type="int" name="ISYM">     2</i>
   <i name="SYMPREC">      0.00001000</i>
  </separator>
  <separator name="dos" >
   <i type="int" name="LORBIT">     0</i>
   <v name="RWIGS">     -1.00000000</v>
   <i type="int" name="NEDOS">   301</i>
   <i name="EMIN">     10.00000000</i>
   <i name="EMAX">    -10.00000000</i>
   <i name="EFERMI">      0.00000000</i>
  </separator>
  <separator name="writing" >
   <i type="int" name="NWRITE">     2</i>
   <i type="logical" name="LWAVE"> F  </i>
   <i type="logical" name="LDOWNSAMPLE"> F  </i>
   <i type="logical" name="LCHARG"> F  </i>
   <i type="logical" name="LPARD"> F  </i>
   <i type="logical" name="LVTOT"> F  </i>
   <i type="logical" name="LVHAR"> F  </i>
   <i type="logical" name="LELF"> F  </i>
   <i type="logical" name="LOPTICS"> F  </i>
   <v name="STM">      0.00000000      0.00000000      0.00000000      0.00000000      0.00000000      0.00000000      0.00000000</v>
  </separator>
  <separator name="performance" >
   <i type="int" name="NPAR">     6</i>
   <i type="int" name="NSIM">     4</i>
   <i type="int" name="NBLK">    -1</i>
   <i type="logical" name="LPLANE"> T  </i>
   <i type="logical" name="LSCALAPACK"> T  </i>
   <i type="logical" name="LSCAAWARE"> F  </i>
   <i type="logical" name="LSCALU"> F  </i>
   <i type="logical" name="LASYNC"> F  </i>
   <i type="logical" name="LORBITALREAL"> F  </i>
  </separator>
  <separator name="miscellaneous" >
   <i type="int" name="IDIOT">     3</i>
   <i type="int" name="PHON_NSTRUCT">    -1</i>
   <i type="logical" name="LMUSIC"> F  </i>
   <v name="POMASS">     16.00000000</v>
   <v name="DARWINR">      0.00000000</v>
   <v name="DARWINV">      1.00000000</v>
   <i type="logical" name="LCORR"> T  </i>
  </separator>
  <i type="logical" name="GGA_COMPAT"> T  </i>
  <i type="logical" name="LBERRY"> F  </i>
  <i type="int" name="ICORELEVEL">     0</i>
  <i type="logical" name="LDAU"> F  </i>
  <i type="int" name="I_CONSTRAINED_M">     0</i>
  <separator name="electronic exchange-correlation" >
   <i type="string" name="GGA">--</i>
   <i type="int" name="VOSKOWN">     0</i>
   <i type="logical" name="LHFCALC"> F  </i>
   <i type="string" name="PRECFOCK"></i>
   <i type="logical" name="LSYMGRAD"> F  </i>
   <i type="logical" name="LHFONE"> F  </i>
   <i type="logical" name="LRHFCALC"> F  </i>
   <i type="logical" name="LTHOMAS"> F  </i>
   <i type="logical" name="LMODELHF"> F  </i>
   <i type="logical" name="LFOCKACE"> F  </i>
   <i name="ENCUT4O">     -1.00000000</i>
   <i type="int" name="EXXOEP">     0</i>
   <i type="int" name="FOURORBIT">     0</i>
   <i name="AEXX">      0.00000000</i>
   <i name="HFALPHA">      0.00000000</i>
   <i name="MCALPHA">      0.00000000</i>
   <i name="ALDAX">      1.00000000</i>
   <i name="AGGAX">      1.00000000</i>
   <i name="ALDAC">      1.00000000</i>
   <i name="AGGAC">      1.00000000</i>
   <i type="int" name="NKREDX">     1</i>
   <i type="int" name="NKREDY">     1</i>
   <i type="int" name="NKREDZ">     1</i>
   <i type="logical" name="SHIFTRED"> F  </i>
   <i type="logical" name="ODDONLY"> F  </i>
   <i type="logical" name="EVENONLY"> F  </i>
   <i type="int" name="LMAXFOCK">     0</i>
   <i type="int" name="NMAXFOCKAE">     0</i>
   <i type="logical" name="LFOCKAEDFT"> F  </i>
   <i name="HFSCREEN">      0.00000000</i>
   <i name="HFSCREENC">      0.00000000</i>
   <i type="int" name="NBANDSGWLOW">     0</i>
  </separator>
  <separator name="vdW DFT" >
   <i type="logical" name="LUSE_VDW"> F  </i>
   <i name="Zab_VDW">     -0.84910000</i>
   <i name="PARAM1">      0.12340000</i>
   <i name="PARAM2">      1.00000000</i>
   <i name="PARAM3">      0.00000000</i>
  </separator>
  <separator name="model GW" >
   <i type="int" name="MODEL_GW">     0</i>
   <i name="MODEL_EPS0">    457.29375000</i>
   <i name="MODEL_ALPHA">      1.00000000</i>
  </separator>
  <separator name="linear response parameters" >
   <i type="logical" name="LEPSILON"> F  </i>
   <i type="logical" name="LRPA"> F  </i>
   <i type="logical" name="LNABLA"> F  </i>
   <i type="logical" name="LVEL"> F  </i>
   <i name="CSHIFT">      0.10000000</i>
   <i name="OMEGAMAX">     -1.00000000</i>
   <i name="DEG_THRESHOLD">      0.00200000</i>
   <i name="RTIME">     -0.10000000</i>
   <i name="WPLASMAI">      0.00000000</i>
   <v name="DFIELD">      0.00000000      0.00000000      0.00000000</v>
   <v name="WPLASMA">      0.00000000      0.00000000      0.00000000      0.00000000      0.00000000      0.00000000      0.00000000      0.00000000      0.00000000</v>
  </separator>
  <separator name="orbital magnetization" >
   <i type="logical" name="NUCIND"> F  </i>
   <v name="MAGPOS">      0.00000000      0.00000000      0.00000000</v>
   <i type="logical" name="LNICSALL"> T  </i>
   <i type="logical" name="ORBITALMAG"> F  </i>
   <i type="logical" name="LMAGBLOCH"> F  </i>
   <i type="logical" name="LCHIMAG"> F  </i>
   <i type="logical" name="LGAUGE"> T  </i>
   <i type="int" name="MAGATOM">     0</i>
   <v name="MAGDIPOL">      0.00000000      0.00000000      0.00000000</v>
   <v name="AVECCONST">      0.00000000      0.00000000      0.00000000</v>
  </separator>
  <separator name="response functions" >
   <i type="logical" name="LFINITE_TEMPERATURE"> F  </i>
   <i type="logical" name="LADDER"> F  </i>
   <i type="logical" name="LRPAFORCE"> F  </i>
   <i type="logical" name="LFXC"> F  </i>
   <i type="logical" name="LHARTREE"> T  </i>
   <i type="int" name="IBSE">     0</i>
   <v type="int" name="KPOINT">    -1     0     0     0</v>
   <i type="logical" name="LTCTC"> F  </i>
   <i type="logical" name="LTCTE"> F  </i>
   <i type="logical" name="LTETE"> F  </i>
   <i type="logical" name="LTRIPLET"> F  </i>
   <i type="logical" name="LFXCEPS"> F  </i>
   <i type="logical" name="LFXHEG"> F  </i>
   <i type="int" name="NATURALO">     2</i>
   <i type="logical" name="LHOLEGF"> F  </i>
   <i type="logical" name="L2ORDER"> F  </i>
   <i type="logical" name="LDMP1"> F  </i>
   <i type="logical" name="LMP2LT"> F  </i>
   <i type="logical" name="LSMP2LT"> F  </i>
   <i type="logical" name="LGWLF"> F  </i>
   <i name="ENCUTGW">     -2.00000000</i>
   <i name="ENCUTGWSOFT">     -2.00000000</i>
   <i name="ENCUTLF">     -1.00000000</i>
   <i type="logical" name="LESF_SPLINES"> F  </i>
   <i type="int" name="LMAXMP2">    -1</i>
   <i name="SCISSOR">      0.00000000</i>
   <i type="int" name="NOMEGA">     0</i>
   <i type="int" name="NOMEGAR">     0</i>
   <i type="int" name="NBANDSGW">    -1</i>
   <i type="int" name="NBANDSO">    -1</i>
   <i type="int" name="NBANDSV">    -1</i>
   <i type="int" name="NELMGW">     1</i>
   <i type="int" name="NELMHF">     1</i>
   <i type="int" name="DIM">     3</i>
   <i type="int" name="IESPILON">     4</i>
   <i type="int" name="ANTIRES">     0</i>
   <i name="OMEGAMAX">    -30.00000000</i>
   <i name="OMEGAMIN">    -30.00000000</i>
   <i name="OMEGATL">   -200.00000000</i>
   <i type="int" name="OMEGAGRID">     0</i>
   <i name="CSHIFT">     -0.10000000</i>
   <i type="logical" name="LSELFENERGY"> F  </i>
   <i type="logical" name="LSPECTRAL"> F  </i>
   <i type="logical" name="LSPECTRALGW"> F  </i>
   <i type="logical" name="LSINGLES"> F  </i>
   <i type="logical" name="LFERMIGW"> F  </i>
   <i type="logical" name="ODDONLYGW"> F  </i>
   <i type="logical" name="EVENONLYGW"> F  </i>
   <i type="int" name="NKREDLFX">     1</i>
   <i type="int" name="NKREDLFY">     1</i>
   <i type="int" name="NKREDLFZ">     1</i>
   <i type="int" name="MAXMEM">  2800</i>
   <i type="int" name="TELESCOPE">     0</i>
   <i type="int" name="NTAUPAR">    -1</i>
   <i type="int" name="NOMEGAPAR">    -1</i>
   <i name="DAMP_NEWTON">      0.80000001</i>
   <i name="LAMBDA">      1.00000000</i>
  </separator>
  <separator name="External order field" >
   <i name="OFIELD_KAPPA">      0.00000000</i>
   <v name="OFIELD_K">      0.00000000      0.00000000      0.00000000</v>
   <i name="OFIELD_Q6_NEAR">      0.00000000</i>
   <i name="OFIELD_Q6_FAR">      0.00000000</i>
   <i name="OFIELD_A">      0.00000000</i>
  </separator>
  <separator name="optional k-points parameters" >
   <i type="int" name="KPOINTS_OPT_MODE">     1</i>
   <i type="logical" name="LKPOINTS_OPT"> F  </i>
  </separator>
 </parameters>
 <atominfo>
  <atoms>       4 </atoms>
  <types>       1 </types>
  <array name="atoms" >
   <dimension dim="1">ion</dimension>
   <field type="string">element</field>
   <field type="int">atomtype</field>
   <set>
    <rc><c>O </c><c>   1</c></rc>
    <rc><c>O </c><c>   1</c></rc>
    <rc><c>O </c><c>   1</c></rc>
    <rc><c>O </c><c>   1</c></rc>
   </set>
  </array>
  <array name="atomtypes" >
   <dimension dim="1">type</dimension>
   <field type="int">atomspertype</field>
   <field type="string">element</field>
   <field>mass</field>
   <field>valence</field>
   <field type="string">pseudopotential</field>
   <set>
    <rc><c>   4</c><c>O </c><c>     16.00000000</c><c>      6.00000000</c><c>  PAW O_GW 19Mar2012                    </c></rc>
   </set>
  </array>
 </atominfo>
 <structure name="initialpos" >
  <crystal>
   <varray name="basis" >
    <v>      14.50000000       0.00000000       0.00000000 </v>
    <v>       0.00000000      14.50000000       0.00000000 </v>
    <v>       0.00000000       0.00000000      14.50000000 </v>
   </varray>
   <i name="volume">   3048.62500000 </i>
   <varray name="rec_basis" >
    <v>       0.06896552       0.00000000       0.00000000 </v>
    <v>       0.00000000       0.06896552       0.00000000 </v>
    <v>       0.00000000       0.00000000       0.06896552 </v>
   </varray>
  </crystal>
  <varray name="positions" >
   <v>       0.00000000       0.00000000       0.00000000 </v>
   <v>       0.08324138       0.00000000       0.00000000 </v>
   <v>       0.00000000       0.00000000       0.13793103 </v>
   <v>       0.08324138       0.00000000       0.13793103 </v>
  </varray>
 </structure>
 <calculation>
  <scstep>
   <time name="dav">   13.20    6.38</time>
   <time name="total">   17.51    8.39</time>
   <energy>
    <i name="alphaZ">      0.35861207 </i>
    <i name="ewald">   1017.57297802 </i>
    <i name="hartreedc">  -2469.70029044 </i>
    <i name="XCdc">    103.12918987 </i>
    <i name="pawpsdc">   1396.60603497 </i>
    <i name="pawaedc">  -1393.39258355 </i>
    <i name="eentropy">     -0.00000000 </i>
    <i name="bandstr">   -212.61473430 </i>
    <i name="atom">   1727.95004229 </i>
    <i name="e_fr_energy">    169.90924893 </i>
    <i name="e_wo_entrp">    169.90924893 </i>
    <i name="e_0_energy">    169.90924893 </i>
   </energy>
  </scstep>
  <scstep>
   <time name="dav">   14.09    7.22</time>
   <time name="total">   14.09    7.22</time>
   <energy>
    <i name="e_fr_energy">     30.74173233 </i>
    <i name="e_wo_entrp">     30.74536938 </i>
    <i name="e_0_energy">     30.74355086 </i>
   </energy>
  </scstep>
  <scstep>
   <time name="dav">   15.97    8.11</time>
   <time name="total">   15.97    8.12</time>
   <energy>
    <i name="e_fr_energy">    -12.99494739 </i>
    <i name="e_wo_entrp">    -12.99494739 </i>
    <i name="e_0_energy">    -12.99494739 </i>
   </energy>
  </scstep>
  <scstep>
   <time name="dav">   13.01    6.80</time>
   <time name="total">   13.01    6.81</time>
   <energy>
    <i name="e_fr_energy">    -19.04656231 </i>
    <i name="e_wo_entrp">    -19.04656231 </i>
    <i name="e_0_energy">    -19.04656231 </i>
   </energy>
  </scstep>
  <scstep>
   <time name="dav">   12.30    6.34</time>
   <time name="total">   13.78    7.20</time>
   <energy>
    <i name="e_fr_energy">    -19.21985282 </i>
    <i name="e_wo_entrp">    -19.21985282 </i>
    <i name="e_0_energy">    -19.21985282 </i>
   </energy>
  </scstep>
  <scstep>
   <time name="dav">   10.87    5.17</time>
   <time name="total">   16.78    8.07</time>
   <energy>
    <i name="e_fr_energy">    -18.73642358 </i>
    <i name="e_wo_entrp">    -18.73642358 </i>
    <i name="e_0_energy">    -18.73642358 </i>
   </energy>
  </scstep>
  <scstep>
   <time name="dav">   10.57    5.37</time>
   <time name="total">   16.22    8.19</time>
   <energy>
    <i name="e_fr_energy">    -18.74679674 </i>
    <i name="e_wo_entrp">    -18.74679674 </i>
    <i name="e_0_energy">    -18.74679674 </i>
   </energy>
  </scstep>
  <scstep>
   <time name="dav">    9.11    4.48</time>
   <time name="total">   14.25    7.18</time>
   <energy>
    <i name="e_fr_energy">    -18.73345758 </i>
    <i name="e_wo_entrp">    -18.73345758 </i>
    <i name="e_0_energy">    -18.73345758 </i>
   </energy>
  </scstep>
  <scstep>
   <time name="dav">   13.56    6.76</time>
   <time name="total">   19.20    9.61</time>
   <energy>
    <i name="e_fr_energy">    -18.73398135 </i>
    <i name="e_wo_entrp">    -18.73398135 </i>
    <i name="e_0_energy">    -18.73398135 </i>
   </energy>
  </scstep>
  <scstep>
   <time name="dav">   13.64    6.72</time>
   <time name="total">   19.14    9.72</time>
   <energy>
    <i name="e_fr_energy">    -18.73429884 </i>
    <i name="e_wo_entrp">    -18.73429884 </i>
    <i name="e_0_energy">    -18.73429884 </i>
   </energy>
  </scstep>
  <scstep>
   <time name="dav">   11.13    5.51</time>
   <time name="total">   16.76    8.42</time>
   <energy>
    <i name="e_fr_energy">    -18.73439570 </i>
    <i name="e_wo_entrp">    -18.73439570 </i>
    <i name="e_0_energy">    -18.73439570 </i>
   </energy>
  </scstep>
  <scstep>
   <time name="dav">   10.49    5.36</time>
   <time name="total">   15.85    8.27</time>
   <energy>
    <i name="e_fr_energy">    -18.73459072 </i>
    <i name="e_wo_entrp">    -18.73459072 </i>
    <i name="e_0_energy">    -18.73459072 </i>
   </energy>
  </scstep>
  <scstep>
   <time name="dav">   13.19    6.79</time>
   <time name="total">   18.13    9.59</time>
   <energy>
    <i name="e_fr_energy">    -18.73476789 </i>
    <i name="e_wo_entrp">    -18.73476789 </i>
    <i name="e_0_energy">    -18.73476789 </i>
   </energy>
  </scstep>
  <scstep>
   <time name="dav">   10.58    5.43</time>
   <time name="total">   16.32    8.41</time>
   <energy>
    <i name="e_fr_energy">    -18.73488604 </i>
    <i name="e_wo_entrp">    -18.73488604 </i>
    <i name="e_0_energy">    -18.73488604 </i>
   </energy>
  </scstep>
  <scstep>
   <time name="dav">   13.59    7.46</time>
   <time name="total">   18.99   10.48</time>
   <energy>
    <i name="e_fr_energy">    -18.73496778 </i>
    <i name="e_wo_entrp">    -18.73496778 </i>
    <i name="e_0_energy">    -18.73496778 </i>
   </energy>
  </scstep>
  <scstep>
   <time name="dav">   14.96    8.69</time>
   <time name="total">   20.43   11.94</time>
   <energy>
    <i name="e_fr_energy">    -18.73499891 </i>
    <i name="e_wo_entrp">    -18.73499891 </i>
    <i name="e_0_energy">    -18.73499891 </i>
   </energy>
  </scstep>
  <scstep>
   <time name="dav">   10.77    5.39</time>
   <time name="total">   15.95    8.30</time>
   <energy>
    <i name="e_fr_energy">    -18.73502446 </i>
    <i name="e_wo_entrp">    -18.73502446 </i>
    <i name="e_0_energy">    -18.73502446 </i>
   </energy>
  </scstep>
  <scstep>
   <time name="dav">    7.99    4.01</time>
   <time name="total">   13.58    6.88</time>
   <energy>
    <i name="e_fr_energy">    -18.73502988 </i>
    <i name="e_wo_entrp">    -18.73502988 </i>
    <i name="e_0_energy">    -18.73502988 </i>
   </energy>
  </scstep>
  <scstep>
   <time name="dav">    9.37    4.76</time>
   <time name="total">   14.89    7.63</time>
   <energy>
    <i name="e_fr_energy">    -18.73503158 </i>
    <i name="e_wo_entrp">    -18.73503158 </i>
    <i name="e_0_energy">    -18.73503158 </i>
   </energy>
  </scstep>
  <scstep>
   <time name="dav">    8.88    4.59</time>
   <time name="total">   14.66    7.60</time>
   <energy>
    <i name="e_fr_energy">    -18.73503207 </i>
    <i name="e_wo_entrp">    -18.73503207 </i>
    <i name="e_0_energy">    -18.73503207 </i>
   </energy>
  </scstep>
  <scstep>
   <time name="dav">    9.68    4.68</time>
   <time name="total">   14.95    7.48</time>
   <energy>
    <i name="e_fr_energy">    -18.73503220 </i>
    <i name="e_wo_entrp">    -18.73503220 </i>
    <i name="e_0_energy">    -18.73503220 </i>
   </energy>
  </scstep>
  <scstep>
   <time name="dav">    9.82    5.00</time>
   <time name="total">   13.20    6.82</time>
   <energy>
    <i name="alphaZ">      0.35861207 </i>
    <i name="ewald">   1017.57297802 </i>
    <i name="hartreedc">  -2479.14208340 </i>
    <i name="XCdc">    104.14216153 </i>
    <i name="pawpsdc">   4661.57759604 </i>
    <i name="pawaedc">  -4658.76921712 </i>
    <i name="eentropy">     -0.00000000 </i>
    <i name="bandstr">   -392.42512163 </i>
    <i name="atom">   1727.95004229 </i>
    <i name="e_fr_energy">    -18.73503221 </i>
    <i name="e_wo_entrp">    -18.73503221 </i>
    <i name="e_0_energy">    -18.73503221 </i>
   </energy>
  </scstep>
  <structure>
   <crystal>
    <varray name="basis" >
     <v>      14.50000000       0.00000000       0.00000000 </v>
     <v>       0.00000000      14.50000000       0.00000000 </v>
     <v>       0.00000000       0.00000000      14.50000000 </v>
    </varray>
    <i name="volume">   3048.62500000 </i>
    <varray name="rec_basis" >
     <v>       0.06896552       0.00000000       0.00000000 </v>
     <v>       0.00000000       0.06896552       0.00000000 </v>
     <v>       0.00000000       0.00000000       0.06896552 </v>
    </varray>
   </crystal>
   <varray name="positions" >
    <v>       0.00000000       0.00000000       0.00000000 </v>
    <v>       0.08324138       0.00000000       0.00000000 </v>
    <v>       0.00000000       0.00000000       0.13793103 </v>
    <v>       0.08324138       0.00000000       0.13793103 </v>
   </varray>
  </structure>
  <varray name="forces" >
   <v>      -3.55761419      -0.00000000       0.17486004 </v>
   <v>       3.55761419       0.00000000       0.17486004 </v>
   <v>      -3.55761419      -0.00000000      -0.17486004 </v>
   <v>       3.55761419       0.00000000      -0.17486004 </v>
  </varray>
  <varray name="stress" >
   <v>      -3.51418473      -0.00000000       0.00000000 </v>
   <v>       0.00000000      -7.41878658       0.00000000 </v>
   <v>       0.00000000       0.00000000      -7.54096776 </v>
  </varray>
  <energy>
   <i name="e_fr_energy">    -18.77677829 </i>
   <i name="e_wo_entrp">    -18.77677829 </i>
   <i name="e_0_energy">    -18.77677829 </i>
  </energy>
  <time name="totalsc">  369.62  191.09</time>
  <eigenvalues>
   <array>
    <dimension dim="1">band</dimension>
    <dimension dim="2">kpoint</dimension>
    <dimension dim="3">spin</dimension>
    <field>eigene</field>
    <field>occ</field>
    <set>
     <set comment="spin 1">
      <set comment="kpoint 1">
       <r>  -33.3387    1.0000 </r>
       <r>  -32.2048    1.0000 </r>
       <r>  -20.6789    1.0000 </r>
       <r>  -19.2018    1.0000 </r>
       <r>  -14.8323    1.0000 </r>
       <r>  -13.4003    1.0000 </r>
       <r>  -13.3712    1.0000 </r>
       <r>  -12.8156    1.0000 </r>
       <r>  -12.3337    1.0000 </r>
       <r>  -10.4689    1.0000 </r>
       <r>   -7.2722    1.0000 </r>
       <r>   -6.2943    1.0000 </r>
       <r>   -5.4197    0.0000 </r>
       <r>   -3.9749    0.0000 </r>
       <r>   -0.2418    0.0000 </r>
       <r>    0.3465    0.0000 </r>
       <r>    0.4099    0.0000 </r>
       <r>    0.4654    0.0000 </r>
      </set>
     </set>
    </set>
   </array>
  </eigenvalues>
  <separator name="orbital magnetization" >
   <v name="MAGDIPOLOUT">      0.00000000      0.00000000      0.00000000</v>
  </separator>
  <dos>
   <i name="efermi">     -6.00948839 </i>
   <total>
    <array>
     <dimension dim="1">gridpoints</dimension>
     <dimension dim="2">spin</dimension>
     <field>energy</field>
     <field>total</field>
     <field>integrated</field>
     <set>
      <set comment="spin 1">
       <r>   -35.0289     0.0000     0.0000 </r>
       <r>   -34.9049     0.0000     0.0000 </r>
       <r>   -34.7810     0.0000     0.0000 </r>
       <r>   -34.6570     0.0000     0.0000 </r>
       <r>   -34.5331     0.0000     0.0000 </r>
       <r>   -34.4091     0.0000     0.0000 </r>
       <r>   -34.2852     0.0000     0.0000 </r>
       <r>   -34.1612     0.0000     0.0000 </r>
       <r>   -34.0373     0.0000     0.0000 </r>
       <r>   -33.9133     0.0000     0.0000 </r>
       <r>   -33.7894     0.0000     0.0000 </r>
       <r>   -33.6654     0.0000     0.0000 </r>
       <r>   -33.5415     0.0000     0.0000 </r>
       <r>   -33.4175     0.2072     0.0257 </r>
       <r>   -33.2936    14.2959     1.7976 </r>
       <r>   -33.1696     1.6327     2.0000 </r>
       <r>   -33.0457     0.0000     2.0000 </r>
       <r>   -32.9217     0.0000     2.0000 </r>
       <r>   -32.7978     0.0000     2.0000 </r>
       <r>   -32.6739     0.0000     2.0000 </r>
       <r>   -32.5499     0.0000     2.0000 </r>
       <r>   -32.4260     0.0000     2.0000 </r>
       <r>   -32.3020     0.0482     2.0060 </r>
       <r>   -32.1781    12.4634     3.5508 </r>
       <r>   -32.0541     3.6240     4.0000 </r>
       <r>   -31.9302     0.0002     4.0000 </r>
       <r>   -31.8062     0.0000     4.0000 </r>
       <r>   -31.6823     0.0000     4.0000 </r>
       <r>   -31.5583     0.0000     4.0000 </r>
       <r>   -31.4344     0.0000     4.0000 </r>
       <r>   -31.3104     0.0000     4.0000 </r>
       <r>   -31.1865     0.0000     4.0000 </r>
       <r>   -31.0625     0.0000     4.0000 </r>
       <r>   -30.9386     0.0000     4.0000 </r>
       <r>   -30.8146     0.0000     4.0000 </r>
       <r>   -30.6907     0.0000     4.0000 </r>
       <r>   -30.5667     0.0000     4.0000 </r>
       <r>   -30.4428     0.0000     4.0000 </r>
       <r>   -30.3188     0.0000     4.0000 </r>
       <r>   -30.1949     0.0000     4.0000 </r>
       <r>   -30.0709     0.0000     4.0000 </r>
       <r>   -29.9470     0.0000     4.0000 </r>
       <r>   -29.8230     0.0000     4.0000 </r>
       <r>   -29.6991     0.0000     4.0000 </r>
       <r>   -29.5751     0.0000     4.0000 </r>
       <r>   -29.4512     0.0000     4.0000 </r>
       <r>   -29.3272     0.0000     4.0000 </r>
       <r>   -29.2033     0.0000     4.0000 </r>
       <r>   -29.0794     0.0000     4.0000 </r>
       <r>   -28.9554     0.0000     4.0000 </r>
       <r>   -28.8315     0.0000     4.0000 </r>
       <r>   -28.7075     0.0000     4.0000 </r>
       <r>   -28.5836     0.0000     4.0000 </r>
       <r>   -28.4596     0.0000     4.0000 </r>
       <r>   -28.3357     0.0000     4.0000 </r>
       <r>   -28.2117     0.0000     4.0000 </r>
       <r>   -28.0878     0.0000     4.0000 </r>
       <r>   -27.9638     0.0000     4.0000 </r>
       <r>   -27.8399     0.0000     4.0000 </r>
       <r>   -27.7159     0.0000     4.0000 </r>
       <r>   -27.5920     0.0000     4.0000 </r>
       <r>   -27.4680     0.0000     4.0000 </r>
       <r>   -27.3441     0.0000     4.0000 </r>
       <r>   -27.2201     0.0000     4.0000 </r>
       <r>   -27.0962     0.0000     4.0000 </r>
       <r>   -26.9722     0.0000     4.0000 </r>
       <r>   -26.8483     0.0000     4.0000 </r>
       <r>   -26.7243     0.0000     4.0000 </r>
       <r>   -26.6004     0.0000     4.0000 </r>
       <r>   -26.4764     0.0000     4.0000 </r>
       <r>   -26.3525     0.0000     4.0000 </r>
       <r>   -26.2285     0.0000     4.0000 </r>
       <r>   -26.1046     0.0000     4.0000 </r>
       <r>   -25.9806     0.0000     4.0000 </r>
       <r>   -25.8567     0.0000     4.0000 </r>
       <r>   -25.7328     0.0000     4.0000 </r>
       <r>   -25.6088     0.0000     4.0000 </r>
       <r>   -25.4849     0.0000     4.0000 </r>
       <r>   -25.3609     0.0000     4.0000 </r>
       <r>   -25.2370     0.0000     4.0000 </r>
       <r>   -25.1130     0.0000     4.0000 </r>
       <r>   -24.9891     0.0000     4.0000 </r>
       <r>   -24.8651     0.0000     4.0000 </r>
       <r>   -24.7412     0.0000     4.0000 </r>
       <r>   -24.6172     0.0000     4.0000 </r>
       <r>   -24.4933     0.0000     4.0000 </r>
       <r>   -24.3693     0.0000     4.0000 </r>
       <r>   -24.2454     0.0000     4.0000 </r>
       <r>   -24.1214     0.0000     4.0000 </r>
       <r>   -23.9975     0.0000     4.0000 </r>
       <r>   -23.8735     0.0000     4.0000 </r>
       <r>   -23.7496     0.0000     4.0000 </r>
       <r>   -23.6256     0.0000     4.0000 </r>
       <r>   -23.5017     0.0000     4.0000 </r>
       <r>   -23.3777     0.0000     4.0000 </r>
       <r>   -23.2538     0.0000     4.0000 </r>
       <r>   -23.1298     0.0000     4.0000 </r>
       <r>   -23.0059     0.0000     4.0000 </r>
       <r>   -22.8819     0.0000     4.0000 </r>
       <r>   -22.7580     0.0000     4.0000 </r>
       <r>   -22.6340     0.0000     4.0000 </r>
       <r>   -22.5101     0.0000     4.0000 </r>
       <r>   -22.3861     0.0000     4.0000 </r>
       <r>   -22.2622     0.0000     4.0000 </r>
       <r>   -22.1383     0.0000     4.0000 </r>
       <r>   -22.0143     0.0000     4.0000 </r>
       <r>   -21.8904     0.0000     4.0000 </r>
       <r>   -21.7664     0.0000     4.0000 </r>
       <r>   -21.6425     0.0000     4.0000 </r>
       <r>   -21.5185     0.0000     4.0000 </r>
       <r>   -21.3946     0.0000     4.0000 </r>
       <r>   -21.2706     0.0000     4.0000 </r>
       <r>   -21.1467     0.0000     4.0000 </r>
       <r>   -21.0227     0.0000     4.0000 </r>
       <r>   -20.8988     0.0000     4.0000 </r>
       <r>   -20.7748     0.0537     4.0067 </r>
       <r>   -20.6509    12.6275     5.5718 </r>
       <r>   -20.5269     3.4544     6.0000 </r>
       <r>   -20.4030     0.0001     6.0000 </r>
       <r>   -20.2790     0.0000     6.0000 </r>
       <r>   -20.1551     0.0000     6.0000 </r>
       <r>   -20.0311     0.0000     6.0000 </r>
       <r>   -19.9072     0.0000     6.0000 </r>
       <r>   -19.7832     0.0000     6.0000 </r>
       <r>   -19.6593     0.0000     6.0000 </r>
       <r>   -19.5353     0.0000     6.0000 </r>
       <r>   -19.4114     0.0000     6.0000 </r>
       <r>   -19.2874     0.1242     6.0154 </r>
       <r>   -19.1635    13.7613     7.7211 </r>
       <r>   -19.0395     2.2503     8.0000 </r>
       <r>   -18.9156     0.0000     8.0000 </r>
       <r>   -18.7916     0.0000     8.0000 </r>
       <r>   -18.6677     0.0000     8.0000 </r>
       <r>   -18.5438     0.0000     8.0000 </r>
       <r>   -18.4198     0.0000     8.0000 </r>
       <r>   -18.2959     0.0000     8.0000 </r>
       <r>   -18.1719     0.0000     8.0000 </r>
       <r>   -18.0480     0.0000     8.0000 </r>
       <r>   -17.9240     0.0000     8.0000 </r>
       <r>   -17.8001     0.0000     8.0000 </r>
       <r>   -17.6761     0.0000     8.0000 </r>
       <r>   -17.5522     0.0000     8.0000 </r>
       <r>   -17.4282     0.0000     8.0000 </r>
       <r>   -17.3043     0.0000     8.0000 </r>
       <r>   -17.1803     0.0000     8.0000 </r>
       <r>   -17.0564     0.0000     8.0000 </r>
       <r>   -16.9324     0.0000     8.0000 </r>
       <r>   -16.8085     0.0000     8.0000 </r>
       <r>   -16.6845     0.0000     8.0000 </r>
       <r>   -16.5606     0.0000     8.0000 </r>
       <r>   -16.4366     0.0000     8.0000 </r>
       <r>   -16.3127     0.0000     8.0000 </r>
       <r>   -16.1887     0.0000     8.0000 </r>
       <r>   -16.0648     0.0000     8.0000 </r>
       <r>   -15.9408     0.0000     8.0000 </r>
       <r>   -15.8169     0.0000     8.0000 </r>
       <r>   -15.6929     0.0000     8.0000 </r>
       <r>   -15.5690     0.0000     8.0000 </r>
       <r>   -15.4450     0.0000     8.0000 </r>
       <r>   -15.3211     0.0000     8.0000 </r>
       <r>   -15.1972     0.0000     8.0000 </r>
       <r>   -15.0732     0.0000     8.0000 </r>
       <r>   -14.9493     0.0076     8.0009 </r>
       <r>   -14.8253     9.3191     9.1560 </r>
       <r>   -14.7014     6.8074     9.9998 </r>
       <r>   -14.5774     0.0017    10.0000 </r>
       <r>   -14.4535     0.0000    10.0000 </r>
       <r>   -14.3295     0.0000    10.0000 </r>
       <r>   -14.2056     0.0000    10.0000 </r>
       <r>   -14.0816     0.0000    10.0000 </r>
       <r>   -13.9577     0.0000    10.0000 </r>
       <r>   -13.8337     0.0000    10.0000 </r>
       <r>   -13.7098     0.0000    10.0000 </r>
       <r>   -13.5858     0.0000    10.0000 </r>
       <r>   -13.4619     0.7410    10.0919 </r>
       <r>   -13.3379    28.1104    13.5761 </r>
       <r>   -13.2140     3.4200    14.0000 </r>
       <r>   -13.0900     0.0001    14.0000 </r>
       <r>   -12.9661     0.0002    14.0000 </r>
       <r>   -12.8421     3.6531    14.4528 </r>
       <r>   -12.7182    12.4352    15.9941 </r>
       <r>   -12.5942     0.0473    16.0000 </r>
       <r>   -12.4703     0.0009    16.0001 </r>
       <r>   -12.3463     5.8108    16.7204 </r>
       <r>   -12.2224    10.3108    17.9984 </r>
       <r>   -12.0984     0.0133    18.0000 </r>
       <r>   -11.9745     0.0000    18.0000 </r>
       <r>   -11.8505     0.0000    18.0000 </r>
       <r>   -11.7266     0.0000    18.0000 </r>
       <r>   -11.6027     0.0000    18.0000 </r>
       <r>   -11.4787     0.0000    18.0000 </r>
       <r>   -11.3548     0.0000    18.0000 </r>
       <r>   -11.2308     0.0000    18.0000 </r>
       <r>   -11.1069     0.0000    18.0000 </r>
       <r>   -10.9829     0.0000    18.0000 </r>
       <r>   -10.8590     0.0000    18.0000 </r>
       <r>   -10.7350     0.0000    18.0000 </r>
       <r>   -10.6111     0.0005    18.0001 </r>
       <r>   -10.4871     4.8913    18.6063 </r>
       <r>   -10.3632    11.2216    19.9972 </r>
       <r>   -10.2392     0.0225    20.0000 </r>
       <r>   -10.1153     0.0000    20.0000 </r>
       <r>    -9.9913     0.0000    20.0000 </r>
       <r>    -9.8674     0.0000    20.0000 </r>
       <r>    -9.7434     0.0000    20.0000 </r>
       <r>    -9.6195     0.0000    20.0000 </r>
       <r>    -9.4955     0.0000    20.0000 </r>
       <r>    -9.3716     0.0000    20.0000 </r>
       <r>    -9.2476     0.0000    20.0000 </r>
       <r>    -9.1237     0.0000    20.0000 </r>
       <r>    -8.9997     0.0000    20.0000 </r>
       <r>    -8.8758     0.0000    20.0000 </r>
       <r>    -8.7518     0.0000    20.0000 </r>
       <r>    -8.6279     0.0000    20.0000 </r>
       <r>    -8.5039     0.0000    20.0000 </r>
       <r>    -8.3800     0.0000    20.0000 </r>
       <r>    -8.2561     0.0000    20.0000 </r>
       <r>    -8.1321     0.0000    20.0000 </r>
       <r>    -8.0082     0.0000    20.0000 </r>
       <r>    -7.8842     0.0000    20.0000 </r>
       <r>    -7.7603     0.0000    20.0000 </r>
       <r>    -7.6363     0.0000    20.0000 </r>
       <r>    -7.5124     0.0000    20.0000 </r>
       <r>    -7.3884     0.0081    20.0010 </r>
       <r>    -7.2645     9.4510    21.1724 </r>
       <r>    -7.1405     6.6750    21.9998 </r>
       <r>    -7.0166     0.0016    22.0000 </r>
       <r>    -6.8926     0.0000    22.0000 </r>
       <r>    -6.7687     0.0000    22.0000 </r>
       <r>    -6.6447     0.0000    22.0000 </r>
       <r>    -6.5208     0.0000    22.0000 </r>
       <r>    -6.3968     0.0301    22.0037 </r>
       <r>    -6.2729    11.7119    23.4554 </r>
       <r>    -6.1489     4.3935    24.0000 </r>
       <r>    -6.0250     0.0003    24.0000 </r>
       <r>    -5.9010     0.0000    24.0000 </r>
       <r>    -5.7771     0.0000    24.0000 </r>
       <r>    -5.6531     0.0000    24.0000 </r>
       <r>    -5.5292     0.0158    24.0020 </r>
       <r>    -5.4052    10.6160    25.3178 </r>
       <r>    -5.2813     5.5032    25.9999 </r>
       <r>    -5.1573     0.0007    26.0000 </r>
       <r>    -5.0334     0.0000    26.0000 </r>
       <r>    -4.9094     0.0000    26.0000 </r>
       <r>    -4.7855     0.0000    26.0000 </r>
       <r>    -4.6616     0.0000    26.0000 </r>
       <r>    -4.5376     0.0000    26.0000 </r>
       <r>    -4.4137     0.0000    26.0000 </r>
       <r>    -4.2897     0.0000    26.0000 </r>
       <r>    -4.1658     0.0000    26.0000 </r>
       <r>    -4.0418     0.4724    26.0586 </r>
       <r>    -3.9179    14.8044    27.8935 </r>
       <r>    -3.7939     0.8590    28.0000 </r>
       <r>    -3.6700     0.0000    28.0000 </r>
       <r>    -3.5460     0.0000    28.0000 </r>
       <r>    -3.4221     0.0000    28.0000 </r>
       <r>    -3.2981     0.0000    28.0000 </r>
       <r>    -3.1742     0.0000    28.0000 </r>
       <r>    -3.0502     0.0000    28.0000 </r>
       <r>    -2.9263     0.0000    28.0000 </r>
       <r>    -2.8023     0.0000    28.0000 </r>
       <r>    -2.6784     0.0000    28.0000 </r>
       <r>    -2.5544     0.0000    28.0000 </r>
       <r>    -2.4305     0.0000    28.0000 </r>
       <r>    -2.3065     0.0000    28.0000 </r>
       <r>    -2.1826     0.0000    28.0000 </r>
       <r>    -2.0586     0.0000    28.0000 </r>
       <r>    -1.9347     0.0000    28.0000 </r>
       <r>    -1.8107     0.0000    28.0000 </r>
       <r>    -1.6868     0.0000    28.0000 </r>
       <r>    -1.5628     0.0000    28.0000 </r>
       <r>    -1.4389     0.0000    28.0000 </r>
       <r>    -1.3149     0.0000    28.0000 </r>
       <r>    -1.1910     0.0000    28.0000 </r>
       <r>    -1.0671     0.0000    28.0000 </r>
       <r>    -0.9431     0.0000    28.0000 </r>
       <r>    -0.8192     0.0000    28.0000 </r>
       <r>    -0.6952     0.0000    28.0000 </r>
       <r>    -0.5713     0.0000    28.0000 </r>
       <r>    -0.4473     0.0000    28.0000 </r>
       <r>    -0.3234     0.1702    28.0211 </r>
       <r>    -0.1994    14.1074    29.7697 </r>
       <r>    -0.0755     1.8581    30.0000 </r>
       <r>     0.0485     0.0000    30.0000 </r>
       <r>     0.1724     0.0000    30.0000 </r>
       <r>     0.2964     1.2701    30.1574 </r>
       <r>     0.4203    26.1462    33.3982 </r>
       <r>     0.5443    20.7826    35.9742 </r>
       <r>     0.6682     0.2084    36.0000 </r>
       <r>     0.7922     0.0000    36.0000 </r>
       <r>     0.9161     0.0000    36.0000 </r>
       <r>     1.0401     0.0000    36.0000 </r>
       <r>     1.1640     0.0000    36.0000 </r>
       <r>     1.2880     0.0000    36.0000 </r>
       <r>     1.4119     0.0000    36.0000 </r>
       <r>     1.5359     0.0000    36.0000 </r>
       <r>     1.6598     0.0000    36.0000 </r>
       <r>     1.7838     0.0000    36.0000 </r>
       <r>     1.9077     0.0000    36.0000 </r>
       <r>     2.0317     0.0000    36.0000 </r>
       <r>     2.1556     0.0000    36.0000 </r>
      </set>
     </set>
    </array>
   </total>
  </dos>
 </calculation>
 <structure name="finalpos" >
  <crystal>
   <varray name="basis" >
    <v>      14.50000000       0.00000000       0.00000000 </v>
    <v>       0.00000000      14.50000000       0.00000000 </v>
    <v>       0.00000000       0.00000000      14.50000000 </v>
   </varray>
   <i name="volume">   3048.62500000 </i>
   <varray name="rec_basis" >
    <v>       0.06896552       0.00000000       0.00000000 </v>
    <v>       0.00000000       0.06896552       0.00000000 </v>
    <v>       0.00000000       0.00000000       0.06896552 </v>
   </varray>
  </crystal>
  <varray name="positions" >
   <v>       0.00000000       0.00000000       0.00000000 </v>
   <v>       0.08324138       0.00000000       0.00000000 </v>
   <v>       0.00000000       0.00000000       0.13793103 </v>
   <v>       0.08324138       0.00000000       0.13793103 </v>
  </varray>
 </structure>
</modeling>
