  254  254    1    1
  0.2268316E+02  0.1514622E-08  0.1514622E-08  0.2900000E-08  0.5000000E-15
   1.0000000000000000E-004
  CAR 
 NiAl                                    
   2532      4   1519
 
  0.1262379E-14  0.1262379E-14  0.1262379E-14  0.2500000E+00
    1      -21.765891   1.000000
    2      -15.011697   1.000000
    3       -9.155460   1.000000
    4       -8.626256   1.000000
    5       -8.248134   1.000000
    6       -8.247704   1.000000
    7       -8.247636   1.000000
    8       -8.247633   1.000000
    9       -8.247550   1.000000
   10       -8.247518   1.000000
   11       -7.798552   1.000000
   12       -7.744589   1.000000
   13       -7.741596   1.000000
   14       -7.741525   1.000000
   15       -7.741495   1.000000
   16       -7.741458   1.000000
   17       -7.741442   1.000000
   18       -6.965579   1.000000
   19       -6.953289   1.000000
   20       -6.953262   1.000000
   21       -6.953188   1.000000
   22       -6.953147   1.000000
   23       -6.953138   1.000000
   24       -6.771939   1.000000
   25       -6.607796   1.000000
   26       -6.607319   1.000000
   27       -6.607254   1.000000
   28       -6.607199   1.000000
   29       -6.607159   1.000000
   30       -6.607087   1.000000
   31       -6.198269   1.000000
   32       -6.184873   1.000000
   33       -6.184836   1.000000
   34       -6.184717   1.000000
   35       -6.184451   1.000000
   36       -6.184393   1.000000
   37       -6.136171   1.000000
   38       -5.982118   1.000000
   39       -5.981488   1.000000
   40       -5.981348   1.000000
   41       -5.981259   1.000000
   42       -5.981109   1.000000
   43       -5.976883   1.000000
   44       -5.976641   1.000000
   45       -5.976623   1.000000
   46       -5.976558   1.000000
   47       -5.976532   1.000000
   48       -5.976441   1.000000
   49       -5.947220   1.000000
   50       -5.740834   1.000000
   51       -5.643459   1.000000
   52       -5.642081   1.000000
   53       -5.641783   1.000000
   54       -5.641549   1.000000
   55       -5.641436   1.000000
   56       -5.640995   1.000000
   57       -5.559801   1.000000
   58       -5.552915   1.000000
   59       -5.551814   1.000000
   60       -5.551214   1.000000
   61       -5.551208   1.000000
   62       -5.550671   1.000000
   63       -5.210610   1.000000
   64       -5.186160   1.000000
   65       -5.184555   1.000000
   66       -5.184156   1.000000
   67       -5.183961   1.000000
   68       -5.183639   1.000000
   69       -5.149423   1.000000
   70       -5.076785   1.000000
   71       -5.035039   1.000000
   72       -5.030645   1.000000
   73       -5.030597   1.000000
   74       -5.030477   1.000000
   75       -5.030370   1.000000
   76       -4.911873   1.000000
   77       -4.874401   1.000000
   78       -4.839345   1.000000
   79       -4.838746   1.000000
   80       -4.838659   1.000000
   81       -4.829466   1.000000
   82       -4.820795   1.000000
   83       -4.820151   1.000000
   84       -4.820101   1.000000
   85       -4.819896   1.000000
   86       -4.763526   1.000000
   87       -4.725844   1.000000
   88       -4.716835   1.000000
   89       -4.716349   1.000000
   90       -4.716262   1.000000
   91       -4.716045   1.000000
   92       -4.692520   1.000000
   93       -4.682790   1.000000
   94       -4.682696   1.000000
   95       -4.682086   1.000000
   96       -4.610868   1.000000
   97       -4.606683   1.000000
   98       -4.606621   1.000000
   99       -4.606585   1.000000
  100       -4.606552   1.000000
  101       -4.606537   1.000000
  102       -4.606484   1.000000
  103       -4.606457   1.000000
  104       -4.606442   1.000000
  105       -4.606426   1.000000
  106       -4.606378   1.000000
  107       -4.606180   1.000000
  108       -4.578513   1.000000
  109       -4.560797   1.000000
  110       -4.560377   1.000000
  111       -4.552619   1.000000
  112       -4.474556   1.000000
  113       -4.474366   1.000000
  114       -4.473662   1.000000
  115       -4.453240   1.000000
  116       -4.452479   1.000000
  117       -4.452454   1.000000
  118       -4.452427   1.000000
  119       -4.442047   1.000000
  120       -4.415370   1.000000
  121       -4.408455   1.000000
  122       -4.408376   1.000000
  123       -4.408160   1.000000
  124       -4.408132   1.000000
  125       -4.408066   1.000000
  126       -4.408049   1.000000
  127       -4.408011   1.000000
  128       -4.407983   1.000000
  129       -4.407958   1.000000
  130       -4.407930   1.000000
  131       -4.405963   1.000000
  132       -4.405703   1.000000
  133       -4.373918   1.000000
  134       -4.373774   1.000000
  135       -4.373768   1.000000
  136       -4.373686   1.000000
  137       -4.373665   1.000000
  138       -4.373628   1.000000
  139       -4.373524   1.000000
  140       -4.373510   1.000000
  141       -4.373496   1.000000
  142       -4.373402   1.000000
  143       -4.373395   1.000000
  144       -4.372599   1.000000
  145       -4.329216   1.000000
  146       -4.328738   1.000000
  147       -4.328726   1.000000
  148       -4.328682   1.000000
  149       -4.326704   1.000000
  150       -4.314624   1.000000
  151       -4.293213   1.000000
  152       -4.292506   1.000000
  153       -4.292472   1.000000
  154       -4.292333   1.000000
  155       -4.286563   1.000000
  156       -4.279720   1.000000
  157       -4.272789   1.000000
  158       -4.272439   1.000000
  159       -4.271339   1.000000
  160       -4.236268   1.000000
  161       -4.236105   1.000000
  162       -4.236037   1.000000
  163       -4.235851   1.000000
  164       -4.235780   1.000000
  165       -4.235608   1.000000
  166       -4.235508   1.000000
  167       -4.235421   1.000000
  168       -4.235384   1.000000
  169       -4.235369   1.000000
  170       -4.235148   1.000000
  171       -4.233181   1.000000
  172       -4.166253   1.000000
  173       -4.165574   1.000000
  174       -4.165462   1.000000
  175       -4.165370   1.000000
  176       -4.160342   1.000000
  177       -4.149664   1.000000
  178       -4.126417   1.000000
  179       -4.126312   1.000000
  180       -4.126134   1.000000
  181       -4.059192   1.000000
  182       -4.057164   1.000000
  183       -4.056121   1.000000
  184       -4.037048   1.000000
  185       -4.036298   1.000000
  186       -4.036064   1.000000
  187       -4.035855   1.000000
  188       -4.035829   1.000000
  189       -4.035557   1.000000
  190       -4.035519   1.000000
  191       -4.035473   1.000000
  192       -4.035423   1.000000
  193       -4.035393   1.000000
  194       -4.035048   1.000000
  195       -4.032871   1.000000
  196       -3.972891   1.000000
  197       -3.972284   1.000000
  198       -3.971425   1.000000
  199       -3.919214   1.000000
  200       -3.918344   1.000000
  201       -3.918093   1.000000
  202       -3.916286   1.000000
  203       -3.915926   1.000000
  204       -3.915801   1.000000
  205       -3.915734   1.000000
  206       -3.913253   1.000000
  207       -3.910523   1.000000
  208       -3.846647   1.000000
  209       -3.846546   1.000000
  210       -3.846461   1.000000
  211       -3.846401   1.000000
  212       -3.846356   1.000000
  213       -3.846344   1.000000
  214       -3.846313   1.000000
  215       -3.846277   1.000000
  216       -3.846228   1.000000
  217       -3.846185   1.000000
  218       -3.846150   1.000000
  219       -3.846102   1.000000
  220       -3.840529   1.000000
  221       -3.840451   1.000000
  222       -3.840240   1.000000
  223       -3.840231   1.000000
  224       -3.840053   1.000000
  225       -3.839448   1.000000
  226       -3.789116   1.000000
  227       -3.787748   1.000000
  228       -3.787520   1.000000
  229       -3.787426   1.000000
  230       -3.787386   1.000000
  231       -3.787288   1.000000
  232       -3.787121   1.000000
  233       -3.787081   1.000000
  234       -3.787051   1.000000
  235       -3.786920   1.000000
  236       -3.786109   1.000000
  237       -3.785068   1.000000
  238       -3.764835   1.000000
  239       -3.764285   1.000000
  240       -3.764265   1.000000
  241       -3.764186   1.000000
  242       -3.763196   1.000000
  243       -3.759706   1.000000
  244       -3.725081   1.000000
  245       -3.724894   1.000000
  246       -3.724809   1.000000
  247       -3.724785   1.000000
  248       -3.724222   1.000000
  249       -3.723732   1.000000
  250       -3.721162   1.000000
  251       -3.721152   1.000000
  252       -3.720947   1.000000
  253       -3.720920   1.000000
  254       -3.712669   1.000000
  255       -3.712590   1.000000
  256       -3.659169   1.000000
  257       -3.658895   1.000000
  258       -3.658757   1.000000
  259       -3.658456   1.000000
  260       -3.658398   1.000000
  261       -3.658254   1.000000
  262       -3.658218   1.000000
  263       -3.658142   1.000000
  264       -3.658091   1.000000
  265       -3.658071   1.000000
  266       -3.658004   1.000000
  267       -3.657959   1.000000
  268       -3.650006   1.000000
  269       -3.649836   1.000000
  270       -3.649545   1.000000
  271       -3.625374   1.000000
  272       -3.625054   1.000000
  273       -3.624985   1.000000
  274       -3.624963   1.000000
  275       -3.603850   1.000000
  276       -3.603194   1.000000
  277       -3.602921   1.000000
  278       -3.602861   1.000000
  279       -3.602639   1.000000
  280       -3.601506   1.000000
  281       -3.591538   1.000000
  282       -3.591409   1.000000
  283       -3.581143   1.000000
  284       -3.580990   1.000000
  285       -3.580951   1.000000
  286       -3.580904   1.000000
  287       -3.579352   1.000000
  288       -3.579221   1.000000
  289       -3.576562   1.000000
  290       -3.576122   1.000000
  291       -3.575972   1.000000
  292       -3.575838   1.000000
  293       -3.575649   1.000000
  294       -3.573537   1.000000
  295       -3.508214   1.000000
  296       -3.507796   1.000000
  297       -3.507262   1.000000
  298       -3.507227   1.000000
  299       -3.501173   1.000000
  300       -3.500262   1.000000
  301       -3.499979   1.000000
  302       -3.499800   1.000000
  303       -3.499733   1.000000
  304       -3.499676   1.000000
  305       -3.499639   1.000000
  306       -3.499602   1.000000
  307       -3.499352   1.000000
  308       -3.499312   1.000000
  309       -3.497976   1.000000
  310       -3.497702   1.000000
  311       -3.428386   1.000000
  312       -3.428341   1.000000
  313       -3.428181   1.000000
  314       -3.428163   1.000000
  315       -3.428056   1.000000
  316       -3.427959   1.000000
  317       -3.394540   1.000000
  318       -3.393562   1.000000
  319       -3.393471   1.000000
  320       -3.392232   1.000000
  321       -3.392176   1.000000
  322       -3.392008   1.000000
  323       -3.391981   1.000000
  324       -3.391890   1.000000
  325       -3.391851   1.000000
  326       -3.391818   1.000000
  327       -3.391721   1.000000
  328       -3.391556   1.000000
  329       -3.382194   1.000000
  330       -3.381610   1.000000
  331       -3.381553   1.000000
  332       -3.381488   1.000000
  333       -3.381437   1.000000
  334       -3.381320   1.000000
  335       -3.375181   1.000000
  336       -3.374795   1.000000
  337       -3.374590   1.000000
  338       -3.374321   1.000000
  339       -3.373782   1.000000
  340       -3.371403   1.000000
  341       -3.287044   1.000000
  342       -3.286461   1.000000
  343       -3.285358   1.000000
  344       -3.247627   1.000000
  345       -3.247381   1.000000
  346       -3.246888   1.000000
  347       -3.246708   1.000000
  348       -3.246487   1.000000
  349       -3.246277   1.000000
  350       -3.235614   1.000000
  351       -3.235025   1.000000
  352       -3.214528   1.000000
  353       -3.213380   1.000000
  354       -3.212798   1.000000
  355       -3.212369   1.000000
  356       -3.212137   1.000000
  357       -3.211908   1.000000
  358       -3.211779   1.000000
  359       -3.211616   1.000000
  360       -3.211447   1.000000
  361       -3.211344   1.000000
  362       -3.211105   1.000000
  363       -3.209728   1.000000
  364       -3.203282   1.000000
  365       -3.202567   1.000000
  366       -3.141868   1.000000
  367       -3.141588   1.000000
  368       -3.141174   1.000000
  369       -3.141058   1.000000
  370       -3.139873   1.000000
  371       -3.138039   1.000000
  372       -3.117210   1.000000
  373       -3.116636   1.000000
  374       -3.115801   1.000000
  375       -3.115725   1.000000
  376       -3.115520   1.000000
  377       -3.115435   1.000000
  378       -3.115263   1.000000
  379       -3.115071   1.000000
  380       -3.115007   1.000000
  381       -3.114894   1.000000
  382       -3.114828   1.000000
  383       -3.114282   1.000000
  384       -3.066081   1.000000
  385       -3.064777   1.000000
  386       -3.063523   1.000000
  387       -3.063476   1.000000
  388       -3.063443   1.000000
  389       -3.063302   1.000000
  390       -3.063256   1.000000
  391       -3.063230   1.000000
  392       -3.063059   1.000000
  393       -3.063014   1.000000
  394       -3.062419   1.000000
  395       -3.061736   1.000000
  396       -3.009025   1.000000
  397       -3.008629   1.000000
  398       -3.008387   1.000000
  399       -3.008259   1.000000
  400       -3.008174   1.000000
  401       -3.008017   1.000000
  402       -2.950755   1.000000
  403       -2.949385   1.000000
  404       -2.949038   1.000000
  405       -2.949025   1.000000
  406       -2.947646   1.000000
  407       -2.944666   1.000000
  408       -2.939574   1.000000
  409       -2.939125   1.000000
  410       -2.939116   1.000000
  411       -2.939070   1.000000
  412       -2.938918   1.000000
  413       -2.937883   1.000000
  414       -2.913010   1.000000
  415       -2.912897   1.000000
  416       -2.912722   1.000000
  417       -2.912560   1.000000
  418       -2.912552   1.000000
  419       -2.912317   1.000000
  420       -2.907768   1.000000
  421       -2.906446   1.000000
  422       -2.906218   1.000000
  423       -2.906023   1.000000
  424       -2.905321   1.000000
  425       -2.901859   1.000000
  426       -2.884979   1.000000
  427       -2.883927   1.000000
  428       -2.882993   1.000000
  429       -2.882771   1.000000
  430       -2.882113   1.000000
  431       -2.881186   1.000000
  432       -2.880349   1.000000
  433       -2.879816   1.000000
  434       -2.878931   1.000000
  435       -2.878894   1.000000
  436       -2.878820   1.000000
  437       -2.878794   1.000000
  438       -2.878745   1.000000
  439       -2.878646   1.000000
  440       -2.878565   1.000000
  441       -2.878550   1.000000
  442       -2.877957   1.000000
  443       -2.875790   1.000000
  444       -2.816734   1.000000
  445       -2.815835   1.000000
  446       -2.814182   1.000000
  447       -2.806580   1.000000
  448       -2.806239   1.000000
  449       -2.806038   1.000000
  450       -2.806013   1.000000
  451       -2.805969   1.000000
  452       -2.805824   1.000000
  453       -2.805682   1.000000
  454       -2.805628   1.000000
  455       -2.805491   1.000000
  456       -2.805458   1.000000
  457       -2.805343   1.000000
  458       -2.805156   1.000000
  459       -2.803619   1.000000
  460       -2.802475   1.000000
  461       -2.802218   1.000000
  462       -2.802160   1.000000
  463       -2.801827   1.000000
  464       -2.800877   1.000000
  465       -2.765069   1.000000
  466       -2.764919   1.000000
  467       -2.764690   1.000000
  468       -2.764689   1.000000
  469       -2.715752   1.000000
  470       -2.715131   1.000000
  471       -2.715074   1.000000
  472       -2.715017   1.000000
  473       -2.714364   1.000000
  474       -2.713308   1.000000
  475       -2.711213   1.000000
  476       -2.711098   1.000000
  477       -2.710347   1.000000
  478       -2.709754   1.000000
  479       -2.709516   1.000000
  480       -2.709239   1.000000
  481       -2.709127   1.000000
  482       -2.709105   1.000000
  483       -2.708963   1.000000
  484       -2.708853   1.000000
  485       -2.708646   1.000000
  486       -2.708500   1.000000
  487       -2.708438   1.000000
  488       -2.708135   1.000000
  489       -2.704037   1.000000
  490       -2.703985   1.000000
  491       -2.703580   1.000000
  492       -2.703052   1.000000
  493       -2.702962   1.000000
  494       -2.702949   1.000000
  495       -2.702908   1.000000
  496       -2.702829   1.000000
  497       -2.702766   1.000000
  498       -2.702716   1.000000
  499       -2.702685   1.000000
  500       -2.702400   1.000000
  501       -2.651353   1.000000
  502       -2.650873   1.000000
  503       -2.650815   1.000000
  504       -2.650720   1.000000
  505       -2.650227   1.000000
  506       -2.646943   1.000000
  507       -2.643341   1.000000
  508       -2.643042   1.000000
  509       -2.642784   1.000000
  510       -2.642587   1.000000
  511       -2.642434   1.000000
  512       -2.641787   1.000000
  513       -2.617214   1.000000
  514       -2.617188   1.000000
  515       -2.616850   1.000000
  516       -2.616800   1.000000
  517       -2.606416   1.000000
  518       -2.592935   1.000000
  519       -2.589143   1.000000
  520       -2.588502   1.000000
  521       -2.588238   1.000000
  522       -2.587827   1.000000
  523       -2.584207   1.000000
  524       -2.567542   1.000000
  525       -2.548289   1.000000
  526       -2.545228   1.000000
  527       -2.544455   1.000000
  528       -2.544128   1.000000
  529       -2.544089   1.000000
  530       -2.544008   1.000000
  531       -2.543872   1.000000
  532       -2.543762   1.000000
  533       -2.543713   1.000000
  534       -2.543549   1.000000
  535       -2.542929   1.000000
  536       -2.542757   1.000000
  537       -2.531913   1.000000
  538       -2.527731   1.000000
  539       -2.526951   1.000000
  540       -2.526370   1.000000
  541       -2.525671   1.000000
  542       -2.518020   1.000000
  543       -2.501334   1.000000
  544       -2.501097   1.000000
  545       -2.500430   1.000000
  546       -2.486381   1.000000
  547       -2.485919   1.000000
  548       -2.485772   1.000000
  549       -2.485548   1.000000
  550       -2.484958   1.000000
  551       -2.480078   1.000000
  552       -2.473385   1.000000
  553       -2.472700   1.000000
  554       -2.472560   1.000000
  555       -2.472523   1.000000
  556       -2.472402   1.000000
  557       -2.472190   1.000000
  558       -2.472130   1.000000
  559       -2.472060   1.000000
  560       -2.471918   1.000000
  561       -2.471828   1.000000
  562       -2.471730   1.000000
  563       -2.471660   1.000000
  564       -2.465687   1.000000
  565       -2.463704   1.000000
  566       -2.462984   1.000000
  567       -2.462909   1.000000
  568       -2.462255   1.000000
  569       -2.462192   1.000000
  570       -2.462127   1.000000
  571       -2.461336   1.000000
  572       -2.450413   1.000000
  573       -2.413159   1.000000
  574       -2.412508   1.000000
  575       -2.412206   1.000000
  576       -2.411998   1.000000
  577       -2.410929   1.000000
  578       -2.410109   1.000000
  579       -2.409884   1.000000
  580       -2.408434   1.000000
  581       -2.408227   1.000000
  582       -2.408059   1.000000
  583       -2.397615   1.000000
  584       -2.397520   1.000000
  585       -2.396625   1.000000
  586       -2.396557   1.000000
  587       -2.396480   1.000000
  588       -2.395013   1.000000
  589       -2.377707   1.000000
  590       -2.369550   1.000000
  591       -2.368575   1.000000
  592       -2.368314   1.000000
  593       -2.368211   1.000000
  594       -2.368111   1.000000
  595       -2.366148   1.000000
  596       -2.355137   1.000000
  597       -2.355075   1.000000
  598       -2.355032   1.000000
  599       -2.354935   1.000000
  600       -2.354912   1.000000
  601       -2.354852   1.000000
  602       -2.350091   1.000000
  603       -2.349975   1.000000
  604       -2.349639   1.000000
  605       -2.336256   1.000000
  606       -2.336171   1.000000
  607       -2.336100   1.000000
  608       -2.335972   1.000000
  609       -2.335934   1.000000
  610       -2.335865   1.000000
  611       -2.320529   1.000000
  612       -2.320287   1.000000
  613       -2.296282   1.000000
  614       -2.296137   1.000000
  615       -2.296112   1.000000
  616       -2.294535   1.000000
  617       -2.293186   1.000000
  618       -2.292746   1.000000
  619       -2.291334   1.000000
  620       -2.291017   1.000000
  621       -2.290931   1.000000
  622       -2.290091   1.000000
  623       -2.275713   1.000000
  624       -2.275485   1.000000
  625       -2.261223   1.000000
  626       -2.261183   1.000000
  627       -2.261075   1.000000
  628       -2.261028   1.000000
  629       -2.260949   1.000000
  630       -2.260863   1.000000
  631       -2.256647   1.000000
  632       -2.255115   1.000000
  633       -2.254062   1.000000
  634       -2.237985   1.000000
  635       -2.237792   1.000000
  636       -2.237666   1.000000
  637       -2.237433   1.000000
  638       -2.237359   1.000000
  639       -2.237247   1.000000
  640       -2.227356   1.000000
  641       -2.226501   1.000000
  642       -2.226464   1.000000
  643       -2.226293   1.000000
  644       -2.215274   1.000000
  645       -2.213908   1.000000
  646       -2.213646   1.000000
  647       -2.213169   1.000000
  648       -2.213155   1.000000
  649       -2.211463   1.000000
  650       -2.210329   1.000000
  651       -2.209925   1.000000
  652       -2.209709   1.000000
  653       -2.209519   1.000000
  654       -2.209419   1.000000
  655       -2.209284   1.000000
  656       -2.209259   1.000000
  657       -2.209046   1.000000
  658       -2.208870   1.000000
  659       -2.208790   1.000000
  660       -2.207698   1.000000
  661       -2.202361   1.000000
  662       -2.201491   1.000000
  663       -2.200372   1.000000
  664       -2.199781   1.000000
  665       -2.199719   1.000000
  666       -2.199653   1.000000
  667       -2.195741   1.000000
  668       -2.195526   1.000000
  669       -2.195194   1.000000
  670       -2.194588   1.000000
  671       -2.194069   1.000000
  672       -2.193176   1.000000
  673       -2.149362   1.000000
  674       -2.149127   1.000000
  675       -2.148089   1.000000
  676       -2.147951   1.000000
  677       -2.147869   1.000000
  678       -2.147559   1.000000
  679       -2.138971   1.000000
  680       -2.127366   1.000000
  681       -2.126632   1.000000
  682       -2.126262   1.000000
  683       -2.126222   1.000000
  684       -2.126065   1.000000
  685       -2.125956   1.000000
  686       -2.118002   1.000000
  687       -2.106222   1.000000
  688       -2.101278   1.000000
  689       -2.101254   1.000000
  690       -2.098322   1.000000
  691       -2.098188   1.000000
  692       -2.097399   1.000000
  693       -2.096891   1.000000
  694       -2.096521   1.000000
  695       -2.096115   1.000000
  696       -2.096062   1.000000
  697       -2.096040   1.000000
  698       -2.095795   1.000000
  699       -2.095484   1.000000
  700       -2.095211   1.000000
  701       -2.093512   1.000000
  702       -2.091035   1.000000
  703       -2.090853   1.000000
  704       -2.082858   1.000000
  705       -2.082650   1.000000
  706       -2.082451   1.000000
  707       -2.082211   1.000000
  708       -2.082109   1.000000
  709       -2.082062   1.000000
  710       -2.081916   1.000000
  711       -2.081873   1.000000
  712       -2.081835   1.000000
  713       -2.081751   1.000000
  714       -2.081627   1.000000
  715       -2.081483   1.000000
  716       -2.078800   1.000000
  717       -2.078613   1.000000
  718       -2.056070   1.000000
  719       -2.056004   1.000000
  720       -2.055935   1.000000
  721       -2.055820   1.000000
  722       -2.055779   1.000000
  723       -2.055737   1.000000
  724       -2.040052   1.000000
  725       -2.034595   1.000000
  726       -2.032362   1.000000
  727       -2.031579   1.000000
  728       -2.030181   1.000000
  729       -2.027412   1.000000
  730       -2.018794   1.000000
  731       -2.013759   1.000000
  732       -2.010006   1.000000
  733       -2.009895   1.000000
  734       -2.009890   1.000000
  735       -2.009770   1.000000
  736       -2.009735   1.000000
  737       -2.009651   1.000000
  738       -2.009577   1.000000
  739       -2.009548   1.000000
  740       -2.008649   1.000000
  741       -2.003938   1.000000
  742       -1.966703   1.000000
  743       -1.966524   1.000000
  744       -1.966430   1.000000
  745       -1.966316   1.000000
  746       -1.966229   1.000000
  747       -1.966088   1.000000
  748       -1.960113   1.000000
  749       -1.959896   1.000000
  750       -1.959889   1.000000
  751       -1.959200   1.000000
  752       -1.958776   1.000000
  753       -1.956044   1.000000
  754       -1.925934   1.000000
  755       -1.915772   1.000000
  756       -1.911627   1.000000
  757       -1.911303   1.000000
  758       -1.911153   1.000000
  759       -1.911042   1.000000
  760       -1.910964   1.000000
  761       -1.910918   1.000000
  762       -1.910842   1.000000
  763       -1.910744   1.000000
  764       -1.910584   1.000000
  765       -1.909118   1.000000
  766       -1.907723   1.000000
  767       -1.907518   1.000000
  768       -1.907285   1.000000
  769       -1.907248   1.000000
  770       -1.907140   1.000000
  771       -1.905089   1.000000
  772       -1.901381   1.000000
  773       -1.901034   1.000000
  774       -1.900672   1.000000
  775       -1.900639   1.000000
  776       -1.900531   1.000000
  777       -1.898646   1.000000
  778       -1.869599   1.000000
  779       -1.869129   1.000000
  780       -1.869003   1.000000
  781       -1.865380   1.000000
  782       -1.865020   1.000000
  783       -1.864887   1.000000
  784       -1.864787   1.000000
  785       -1.864771   1.000000
  786       -1.864578   1.000000
  787       -1.860407   1.000000
  788       -1.850557   1.000000
  789       -1.844969   1.000000
  790       -1.844467   1.000000
  791       -1.842645   1.000000
  792       -1.840784   1.000000
  793       -1.840592   1.000000
  794       -1.840053   1.000000
  795       -1.839771   1.000000
  796       -1.839615   1.000000
  797       -1.839489   1.000000
  798       -1.835718   1.000000
  799       -1.821140   1.000000
  800       -1.820722   1.000000
  801       -1.819885   1.000000
  802       -1.819618   1.000000
  803       -1.819523   1.000000
  804       -1.819458   1.000000
  805       -1.819204   1.000000
  806       -1.814835   1.000000
  807       -1.811459   1.000000
  808       -1.811306   1.000000
  809       -1.810928   1.000000
  810       -1.810806   1.000000
  811       -1.810758   1.000000
  812       -1.810663   1.000000
  813       -1.810484   1.000000
  814       -1.810022   1.000000
  815       -1.809542   1.000000
  816       -1.805489   1.000000
  817       -1.781606   1.000000
  818       -1.776085   1.000000
  819       -1.772663   1.000000
  820       -1.772530   1.000000
  821       -1.772043   1.000000
  822       -1.771904   1.000000
  823       -1.771708   1.000000
  824       -1.771472   1.000000
  825       -1.771354   1.000000
  826       -1.771295   1.000000
  827       -1.771076   1.000000
  828       -1.767806   1.000000
  829       -1.739491   1.000000
  830       -1.739396   1.000000
  831       -1.739120   1.000000
  832       -1.737947   1.000000
  833       -1.737834   1.000000
  834       -1.737803   1.000000
  835       -1.737712   1.000000
  836       -1.737466   1.000000
  837       -1.737211   1.000000
  838       -1.733657   1.000000
  839       -1.733579   1.000000
  840       -1.733326   1.000000
  841       -1.733167   1.000000
  842       -1.733045   1.000000
  843       -1.732767   1.000000
  844       -1.724871   1.000000
  845       -1.721753   1.000000
  846       -1.721485   1.000000
  847       -1.721372   1.000000
  848       -1.721248   1.000000
  849       -1.720964   1.000000
  850       -1.717591   1.000000
  851       -1.713880   1.000000
  852       -1.712195   1.000000
  853       -1.711946   1.000000
  854       -1.711174   1.000000
  855       -1.710986   1.000000
  856       -1.710359   1.000000
  857       -1.709274   1.000000
  858       -1.708848   1.000000
  859       -1.707718   1.000000
  860       -1.705203   1.000000
  861       -1.692206   1.000000
  862       -1.688672   1.000000
  863       -1.688045   1.000000
  864       -1.684895   1.000000
  865       -1.657712   1.000000
  866       -1.653810   1.000000
  867       -1.653709   1.000000
  868       -1.653447   1.000000
  869       -1.652250   1.000000
  870       -1.650132   1.000000
  871       -1.627142   1.000000
  872       -1.625705   1.000000
  873       -1.624211   1.000000
  874       -1.623508   1.000000
  875       -1.623483   1.000000
  876       -1.623016   1.000000
  877       -1.622932   1.000000
  878       -1.622890   1.000000
  879       -1.622789   1.000000
  880       -1.622277   1.000000
  881       -1.622239   1.000000
  882       -1.622102   1.000000
  883       -1.609920   1.000000
  884       -1.604695   1.000000
  885       -1.601504   1.000000
  886       -1.601032   1.000000
  887       -1.600587   1.000000
  888       -1.596279   1.000000
  889       -1.551478   1.000000
  890       -1.551333   1.000000
  891       -1.550668   1.000000
  892       -1.550407   1.000000
  893       -1.550350   1.000000
  894       -1.550282   1.000000
  895       -1.548862   1.000000
  896       -1.502231   1.000000
  897       -1.497606   1.000000
  898       -1.497204   1.000000
  899       -1.496543   1.000000
  900       -1.495731   1.000000
  901       -1.494808   1.000000