 253 253   0   0
  0.2277282E+02  0.1514622E-08  0.1514622E-08  0.2900000E-08  0.2000000E-15
   1.0000000000000000E-004
  CAR 
 NiAl                                    
      5.98792951    -21.26833858  301     -0.53767554      1.00000000
    -21.268  0.0000E+00  0.0000E+00
    -21.177  0.0000E+00  0.0000E+00
    -21.087  0.0000E+00  0.0000E+00
    -20.996  0.0000E+00  0.0000E+00
    -20.905  0.0000E+00  0.0000E+00
    -20.814  0.0000E+00  0.0000E+00
    -20.723  0.0000E+00  0.0000E+00
    -20.632  0.0000E+00  0.0000E+00
    -20.542  0.0000E+00  0.0000E+00
    -20.451  0.0000E+00  0.0000E+00
    -20.360  0.0000E+00  0.0000E+00
    -20.269  0.3353E-11  0.3046E-12
    -20.178  0.7081E-05  0.6433E-06
    -20.087  0.2787E-01  0.2533E-02
    -19.996  0.4257E+00  0.4121E-01
    -19.906  0.9666E-01  0.4999E-01
    -19.815  0.1276E-03  0.5000E-01
    -19.724  0.3504E-09  0.5000E-01
    -19.633  0.0000E+00  0.5000E-01
    -19.542  0.0000E+00  0.5000E-01
    -19.451  0.0000E+00  0.5000E-01
    -19.360  0.0000E+00  0.5000E-01
    -19.270  0.0000E+00  0.5000E-01
    -19.179  0.0000E+00  0.5000E-01
    -19.088  0.0000E+00  0.5000E-01
    -18.997  0.0000E+00  0.5000E-01
    -18.906  0.0000E+00  0.5000E-01
    -18.815  0.0000E+00  0.5000E-01
    -18.724  0.0000E+00  0.5000E-01
    -18.634  0.0000E+00  0.5000E-01
    -18.543  0.0000E+00  0.5000E-01
    -18.452  0.0000E+00  0.5000E-01
    -18.361  0.0000E+00  0.5000E-01
    -18.270  0.0000E+00  0.5000E-01
    -18.179  0.0000E+00  0.5000E-01
    -18.088  0.0000E+00  0.5000E-01
    -17.998  0.0000E+00  0.5000E-01
    -17.907  0.0000E+00  0.5000E-01
    -17.816  0.0000E+00  0.5000E-01
    -17.725  0.0000E+00  0.5000E-01
    -17.634  0.0000E+00  0.5000E-01
    -17.543  0.0000E+00  0.5000E-01
    -17.452  0.0000E+00  0.5000E-01
    -17.362  0.0000E+00  0.5000E-01
    -17.271  0.0000E+00  0.5000E-01
    -17.180  0.0000E+00  0.5000E-01
    -17.089  0.0000E+00  0.5000E-01
    -16.998  0.0000E+00  0.5000E-01
    -16.907  0.0000E+00  0.5000E-01
    -16.816  0.0000E+00  0.5000E-01
    -16.726  0.0000E+00  0.5000E-01
    -16.635  0.0000E+00  0.5000E-01
    -16.544  0.0000E+00  0.5000E-01
    -16.453  0.0000E+00  0.5000E-01
    -16.362  0.0000E+00  0.5000E-01
    -16.271  0.0000E+00  0.5000E-01
    -16.181  0.0000E+00  0.5000E-01
    -16.090  0.0000E+00  0.5000E-01
    -15.999  0.0000E+00  0.5000E-01
    -15.908  0.0000E+00  0.5000E-01
    -15.817  0.0000E+00  0.5000E-01
    -15.726  0.0000E+00  0.5000E-01
    -15.635  0.0000E+00  0.5000E-01
    -15.545  0.0000E+00  0.5000E-01
    -15.454  0.0000E+00  0.5000E-01
    -15.363  0.0000E+00  0.5000E-01
    -15.272  0.0000E+00  0.5000E-01
    -15.181  0.0000E+00  0.5000E-01
    -15.090  0.0000E+00  0.5000E-01
    -14.999  0.0000E+00  0.5000E-01
    -14.909  0.0000E+00  0.5000E-01
    -14.818  0.0000E+00  0.5000E-01
    -14.727  0.0000E+00  0.5000E-01
    -14.636  0.0000E+00  0.5000E-01
    -14.545  0.0000E+00  0.5000E-01
    -14.454  0.0000E+00  0.5000E-01
    -14.363  0.0000E+00  0.5000E-01
    -14.273  0.0000E+00  0.5000E-01
    -14.182  0.0000E+00  0.5000E-01
    -14.091  0.0000E+00  0.5000E-01
    -14.000  0.0000E+00  0.5000E-01
    -13.909  0.0000E+00  0.5000E-01
    -13.818  0.0000E+00  0.5000E-01
    -13.727  0.0000E+00  0.5000E-01
    -13.637  0.0000E+00  0.5000E-01
    -13.546  0.0000E+00  0.5000E-01
    -13.455  0.0000E+00  0.5000E-01
    -13.364  0.0000E+00  0.5000E-01
    -13.273  0.0000E+00  0.5000E-01
    -13.182  0.0000E+00  0.5000E-01
    -13.091  0.0000E+00  0.5000E-01
    -13.001  0.0000E+00  0.5000E-01
    -12.910  0.0000E+00  0.5000E-01
    -12.819  0.0000E+00  0.5000E-01
    -12.728  0.0000E+00  0.5000E-01
    -12.637  0.0000E+00  0.5000E-01
    -12.546  0.0000E+00  0.5000E-01
    -12.455  0.0000E+00  0.5000E-01
    -12.365  0.0000E+00  0.5000E-01
    -12.274  0.0000E+00  0.5000E-01
    -12.183  0.0000E+00  0.5000E-01
    -12.092  0.0000E+00  0.5000E-01
    -12.001  0.0000E+00  0.5000E-01
    -11.910  0.0000E+00  0.5000E-01
    -11.819  0.0000E+00  0.5000E-01
    -11.729  0.0000E+00  0.5000E-01
    -11.638  0.0000E+00  0.5000E-01
    -11.547  0.0000E+00  0.5000E-01
    -11.456  0.0000E+00  0.5000E-01
    -11.365  0.0000E+00  0.5000E-01
    -11.274  0.0000E+00  0.5000E-01
    -11.184  0.0000E+00  0.5000E-01
    -11.093  0.0000E+00  0.5000E-01
    -11.002  0.0000E+00  0.5000E-01
    -10.911  0.0000E+00  0.5000E-01
    -10.820  0.0000E+00  0.5000E-01
    -10.729  0.0000E+00  0.5000E-01
    -10.638  0.0000E+00  0.5000E-01
    -10.548  0.0000E+00  0.5000E-01
    -10.457  0.0000E+00  0.5000E-01
    -10.366  0.0000E+00  0.5000E-01
    -10.275  0.0000E+00  0.5000E-01
    -10.184  0.0000E+00  0.5000E-01
    -10.093  0.0000E+00  0.5000E-01
    -10.002  0.0000E+00  0.5000E-01
     -9.912  0.0000E+00  0.5000E-01
     -9.821  0.0000E+00  0.5000E-01
     -9.730  0.0000E+00  0.5000E-01
     -9.639  0.0000E+00  0.5000E-01
     -9.548  0.0000E+00  0.5000E-01
     -9.457  0.7091E-10  0.5000E-01
     -9.366  0.2807E-04  0.5000E-01
     -9.276  0.2298E-01  0.5209E-01
     -9.185  0.1071E+00  0.6182E-01
     -9.094  0.1471E-01  0.6316E-01
     -9.003  0.4677E+00  0.1056E+00
     -8.912  0.3482E+00  0.1373E+00
     -8.821  0.2426E-02  0.1375E+00
     -8.730  0.5152E-02  0.1380E+00
     -8.640  0.1102E+00  0.1480E+00
     -8.549  0.5011E+00  0.1935E+00
     -8.458  0.6112E+00  0.2490E+00
     -8.367  0.6939E+00  0.3121E+00
     -8.276  0.6508E+00  0.3712E+00
     -8.185  0.4167E-01  0.3750E+00
     -8.094  0.3702E-02  0.3753E+00
     -8.004  0.3880E+00  0.4106E+00
     -7.913  0.4288E+00  0.4495E+00
     -7.822  0.1863E+00  0.4665E+00
     -7.731  0.9390E+00  0.5518E+00
     -7.640  0.1409E+01  0.6798E+00
     -7.549  0.7592E+00  0.7488E+00
     -7.458  0.1508E+00  0.7625E+00
     -7.368  0.1189E-01  0.7636E+00
     -7.277  0.5274E+00  0.8115E+00
     -7.186  0.1168E+01  0.9176E+00
     -7.095  0.1551E+01  0.1058E+01
     -7.004  0.2136E+00  0.1078E+01
     -6.913  0.6043E+00  0.1133E+01
     -6.823  0.3440E+00  0.1164E+01
     -6.732  0.7683E+00  0.1234E+01
     -6.641  0.7692E+00  0.1304E+01
     -6.550  0.1325E+01  0.1424E+01
     -6.459  0.2035E+01  0.1609E+01
     -6.368  0.8972E+00  0.1690E+01
     -6.277  0.8843E+00  0.1771E+01
     -6.187  0.9478E+00  0.1857E+01
     -6.096  0.1706E+01  0.2012E+01
     -6.005  0.2242E+01  0.2216E+01
     -5.914  0.8203E+00  0.2290E+01
     -5.823  0.4614E+00  0.2332E+01
     -5.732  0.3161E+00  0.2361E+01
     -5.641  0.7462E+00  0.2429E+01
     -5.551  0.1324E+01  0.2549E+01
     -5.460  0.3665E+01  0.2882E+01
     -5.369  0.2654E+01  0.3123E+01
     -5.278  0.8296E+00  0.3198E+01
     -5.187  0.2593E+01  0.3434E+01
     -5.096  0.3179E+01  0.3723E+01
     -5.005  0.1225E+01  0.3834E+01
     -4.915  0.1115E+01  0.3935E+01
     -4.824  0.5253E+01  0.4413E+01
     -4.733  0.5963E+01  0.4954E+01
     -4.642  0.3995E+01  0.5317E+01
     -4.551  0.5870E+01  0.5851E+01
     -4.460  0.7259E+01  0.6510E+01
     -4.369  0.6492E+01  0.7100E+01
     -4.279  0.4756E+01  0.7532E+01
     -4.188  0.7178E+01  0.8184E+01
     -4.097  0.6924E+01  0.8813E+01
     -4.006  0.9338E+01  0.9662E+01
     -3.915  0.1214E+02  0.1076E+02
     -3.824  0.1104E+02  0.1177E+02
     -3.733  0.1180E+02  0.1284E+02
     -3.643  0.1080E+02  0.1382E+02
     -3.552  0.1019E+02  0.1475E+02
     -3.461  0.8391E+01  0.1551E+02
     -3.370  0.8759E+01  0.1630E+02
     -3.279  0.9019E+01  0.1712E+02
     -3.188  0.1268E+02  0.1827E+02
     -3.097  0.1226E+02  0.1939E+02
     -3.007  0.8278E+01  0.2014E+02
     -2.916  0.1425E+02  0.2144E+02
     -2.825  0.1333E+02  0.2265E+02
     -2.734  0.1146E+02  0.2369E+02
     -2.643  0.1555E+02  0.2510E+02
     -2.552  0.1258E+02  0.2624E+02
     -2.462  0.1719E+02  0.2781E+02
     -2.371  0.1698E+02  0.2935E+02
     -2.280  0.1968E+02  0.3114E+02
     -2.189  0.1937E+02  0.3290E+02
     -2.098  0.1761E+02  0.3450E+02
     -2.007  0.2117E+02  0.3642E+02
     -1.916  0.2001E+02  0.3824E+02
     -1.826  0.1780E+02  0.3985E+02
     -1.735  0.1457E+02  0.4118E+02
     -1.644  0.1196E+02  0.4227E+02
     -1.553  0.1249E+02  0.4340E+02
     -1.462  0.1646E+02  0.4490E+02
     -1.371  0.1950E+02  0.4667E+02
     -1.280  0.1856E+02  0.4835E+02
     -1.190  0.1237E+02  0.4948E+02
     -1.099  0.1649E+02  0.5097E+02
     -1.008  0.1837E+02  0.5264E+02
     -0.917  0.2062E+02  0.5452E+02
     -0.826  0.1821E+02  0.5617E+02
     -0.735  0.1720E+02  0.5773E+02
     -0.644  0.2395E+02  0.5991E+02
     -0.554  0.3067E+02  0.6270E+02
     -0.463  0.2386E+02  0.6486E+02
     -0.372  0.1270E+02  0.6602E+02
     -0.281  0.4982E+01  0.6647E+02
     -0.190  0.3139E+01  0.6676E+02
     -0.099  0.4512E+01  0.6717E+02
     -0.008  0.3639E+01  0.6750E+02
      0.082  0.2424E+01  0.6772E+02
      0.173  0.1115E+01  0.6782E+02
      0.264  0.1665E+01  0.6797E+02
      0.355  0.1315E+01  0.6809E+02
      0.446  0.2004E+01  0.6827E+02
      0.537  0.2542E+01  0.6850E+02
      0.628  0.1848E+01  0.6867E+02
      0.718  0.2586E+01  0.6891E+02
      0.809  0.2608E+01  0.6914E+02
      0.900  0.2383E+01  0.6936E+02
      0.991  0.3527E+01  0.6968E+02
      1.082  0.1493E+01  0.6982E+02
      1.173  0.9226E+00  0.6990E+02
      1.264  0.1764E+01  0.7006E+02
      1.354  0.2788E+01  0.7031E+02
      1.445  0.1062E+01  0.7041E+02
      1.536  0.7768E+00  0.7048E+02
      1.627  0.1635E+01  0.7063E+02
      1.718  0.3672E+01  0.7096E+02
      1.809  0.1347E+01  0.7108E+02
      1.899  0.1537E+01  0.7122E+02
      1.990  0.2443E+01  0.7145E+02
      2.081  0.2080E+01  0.7163E+02
      2.172  0.1608E+01  0.7178E+02
      2.263  0.2031E+01  0.7197E+02
      2.354  0.3069E+01  0.7224E+02
      2.445  0.2037E+01  0.7243E+02
      2.535  0.1774E+01  0.7259E+02
      2.626  0.9582E+00  0.7268E+02
      2.717  0.3758E+00  0.7271E+02
      2.808  0.9470E+00  0.7280E+02
      2.899  0.8200E+00  0.7287E+02
      2.990  0.1461E+01  0.7300E+02
      3.081  0.3021E+01  0.7328E+02
      3.171  0.4537E+01  0.7369E+02
      3.262  0.1614E+01  0.7384E+02
      3.353  0.1212E+01  0.7395E+02
      3.444  0.1075E+01  0.7405E+02
      3.535  0.2299E+01  0.7425E+02
      3.626  0.1334E+01  0.7438E+02
      3.717  0.1566E+01  0.7452E+02
      3.807  0.1326E+01  0.7464E+02
      3.898  0.6427E+00  0.7470E+02
      3.989  0.5146E-01  0.7470E+02
      4.080  0.5815E+00  0.7475E+02
      4.171  0.1116E+01  0.7486E+02
      4.262  0.2003E+01  0.7504E+02
      4.353  0.1325E+01  0.7516E+02
      4.443  0.2050E+01  0.7534E+02
      4.534  0.5089E+00  0.7539E+02
      4.625  0.1328E+01  0.7551E+02
      4.716  0.1552E+01  0.7565E+02
      4.807  0.1018E+01  0.7575E+02
      4.898  0.5261E-01  0.7575E+02
      4.989  0.1148E-04  0.7575E+02
      5.079  0.4824E-11  0.7575E+02
      5.170  0.0000E+00  0.7575E+02
      5.261  0.0000E+00  0.7575E+02
      5.352  0.0000E+00  0.7575E+02
      5.443  0.0000E+00  0.7575E+02
      5.534  0.0000E+00  0.7575E+02
      5.625  0.0000E+00  0.7575E+02
      5.715  0.0000E+00  0.7575E+02
      5.806  0.0000E+00  0.7575E+02
      5.897  0.0000E+00  0.7575E+02
      5.988  0.0000E+00  0.7575E+02
