         261
 Energy:  -1420.0882955000000      en  -1322.8363755000000      edisp  -97.251919999999998     
 X   0.00000000       0.00000000       0.00000000    
 X   0.00000000      -15.1462221       0.00000000    
 X   0.00000000      -7.57311106      -13.1170130    
 X   29.0000000       0.00000000       0.00000000    
 X   0.00000000      -22.7193336      -13.1170130    
 X   29.0000000      -15.1462221       0.00000000    
 X   29.0000000      -7.57311106      -13.1170130    
 X   29.0000000      -22.7193336      -13.1170130    
 Ni   3.02601004      -10.0974798      -5.82978010    
 Ni   3.02601004      -12.6218500      -10.2021198    
 Ni   3.02601004      -7.57311010      -1.45745003    
 Ni   3.02601004      -15.1462202      -5.82978010    
 Ni   3.02601004      -17.6705894      -10.2021198    
 Ni   3.02601004      -12.6218500      -1.45745003    
 Ni   3.02601004      -5.04873991      -5.82978010    
 Ni   3.02601004      -7.57311010      -10.2021198    
 Ni   3.02601004      -2.52436996      -1.45745003    
 Ni   5.02237988      -12.6218500      -7.28723001    
 Ni   5.02237988      -15.1462202      -11.6595697    
 Ni   5.02237988      -10.0974798      -2.91489005    
 Ni   5.02237988      -17.6705894      -7.28723001    
 Ni   5.02237988      -20.1949596      -11.6595697    
 Ni   5.02237988      -15.1462202      -2.91489005    
 Ni   5.02237988      -7.57311010      -7.28723001    
 Ni   5.02237988      -10.0974798      -11.6595697    
 Ni   5.02237988      -5.04873991      -2.91489005    
 Ni   7.03247023      -15.1462202      -8.74468040    
 Ni   7.03247023      -10.0974798       0.00000000    
 Ni   7.03247023      -12.6218500      -4.37234020    
 Ni   7.03247023      -5.04873991      -8.74468040    
 Ni   7.03247023       0.00000000       0.00000000    
 Ni   7.03247023      -2.52436996      -4.37234020    
 Ni   7.03247023      -10.0974798      -8.74468040    
 Ni   7.03247023      -5.04873991       0.00000000    
 Ni   7.03247023      -7.57311010      -4.37234020    
 Ni   9.04018974      -17.6705894      -10.2021198    
 Ni   9.04018974      -12.6218500      -1.45745003    
 Ni   9.04018974      -15.1462202      -5.82978010    
 Ni   9.04018974      -7.57311010      -10.2021198    
 Ni   9.04018974      -2.52436996      -1.45745003    
 Ni   9.04018974      -5.04873991      -5.82978010    
 Ni   9.04018974      -12.6218500      -10.2021198    
 Ni   9.04018974      -7.57311010      -1.45745003    
 Ni   9.04018974      -10.0974798      -5.82978010    
 Ni   11.0479097      -20.1949596      -11.6595697    
 Ni   11.0479097      -15.1462202      -2.91489005    
 Ni   11.0479097      -17.6705894      -7.28723001    
 Ni   11.0479097      -10.0974798      -11.6595697    
 Ni   11.0479097      -5.04873991      -2.91489005    
 Ni   11.0479097      -7.57311010      -7.28723001    
 Ni   11.0479097      -15.1462202      -11.6595697    
 Ni   11.0479097      -10.0974798      -2.91489005    
 Ni   11.0479097      -12.6218500      -7.28723001    
 Ni   13.0579996       0.00000000       0.00000000    
 Ni   13.0579996      -2.52436996      -4.37234020    
 Ni   13.0579996      -5.04873991      -8.74468040    
 Ni   13.0579996      -5.04873991       0.00000000    
 Ni   13.0579996      -7.57311010      -4.37234020    
 Ni   13.0579996      -10.0974798      -8.74468040    
 Ni   13.0579996      -10.0974798       0.00000000    
 Ni   13.0579996      -12.6218500      -4.37234020    
 Ni   13.0579996      -15.1462202      -8.74468040    
 Ni   15.0543699      -2.52436996      -1.45745003    
 Ni   15.0543699      -5.04873991      -5.82978010    
 Ni   15.0543699      -7.57311010      -10.2021198    
 Ni   15.0543699      -7.57311010      -1.45745003    
 Ni   15.0543699      -10.0974798      -5.82978010    
 Ni   15.0543699      -12.6218500      -10.2021198    
 Ni   15.0543699      -12.6218500      -1.45745003    
 Ni   15.0543699      -15.1462202      -5.82978010    
 Ni   15.0543699      -17.6705894      -10.2021198    
 Ni   3.02601004      -6.31092978      -3.64361000    
 Ni   3.02601004      -8.83530045      -8.01595020    
 Ni   3.02601004      -11.3596697      -12.3882904    
 Ni   3.02601004      -11.3596697      -3.64361000    
 Ni   3.02601004      -13.8840399      -8.01595020    
 Ni   3.02601004      -16.4084091      -12.3882904    
 Ni   3.02601004      -16.4084091      -3.64361000    
 Ni   3.02601004      -18.9327793      -8.01595020    
 Ni   3.02601004      -21.4571495      -12.3882904    
 Ni   5.02237988      -8.83530045      -5.10105991    
 Ni   5.02237988      -11.3596697      -9.47340012    
 Ni   5.02237988      -6.31092978     -0.728720009    
 Ni   5.02237988      -13.8840399      -5.10105991    
 Ni   5.02237988      -16.4084091      -9.47340012    
 Ni   5.02237988      -11.3596697     -0.728720009    
 Ni   5.02237988      -3.78656006      -5.10105991    
 Ni   5.02237988      -6.31092978      -9.47340012    
 Ni   5.02237988      -1.26218998     -0.728720009    
 Ni   7.03247023      -11.3596697      -6.55850983    
 Ni   7.03247023      -13.8840399      -10.9308395    
 Ni   7.03247023      -8.83530045      -2.18617010    
 Ni   7.03247023      -16.4084091      -6.55850983    
 Ni   7.03247023      -18.9327793      -10.9308395    
 Ni   7.03247023      -13.8840399      -2.18617010    
 Ni   7.03247023      -6.31092978      -6.55850983    
 Ni   7.03247023      -8.83530045      -10.9308395    
 Ni   7.03247023      -3.78656006      -2.18617010    
 Ni   9.04018974      -13.8840399      -8.01595020    
 Ni   9.04018974      -16.4084091      -12.3882904    
 Ni   9.04018974      -11.3596697      -3.64361000    
 Ni   9.04018974      -18.9327793      -8.01595020    
 Ni   9.04018974      -21.4571495      -12.3882904    
 Ni   9.04018974      -16.4084091      -3.64361000    
 Ni   9.04018974      -8.83530045      -8.01595020    
 Ni   9.04018974      -11.3596697      -12.3882904    
 Ni   9.04018974      -6.31092978      -3.64361000    
 Ni   11.0479097      -16.4084091      -9.47340012    
 Ni   11.0479097      -11.3596697     -0.728720009    
 Ni   11.0479097      -13.8840399      -5.10105991    
 Ni   11.0479097      -6.31092978      -9.47340012    
 Ni   11.0479097      -1.26218998     -0.728720009    
 Ni   11.0479097      -3.78656006      -5.10105991    
 Ni   11.0479097      -11.3596697      -9.47340012    
 Ni   11.0479097      -6.31092978     -0.728720009    
 Ni   11.0479097      -8.83530045      -5.10105991    
 Ni   13.0579996      -18.9327793      -10.9308395    
 Ni   13.0579996      -13.8840399      -2.18617010    
 Ni   13.0579996      -16.4084091      -6.55850983    
 Ni   13.0579996      -8.83530045      -10.9308395    
 Ni   13.0579996      -3.78656006      -2.18617010    
 Ni   13.0579996      -6.31092978      -6.55850983    
 Ni   13.0579996      -13.8840399      -10.9308395    
 Ni   13.0579996      -8.83530045      -2.18617010    
 Ni   13.0579996      -11.3596697      -6.55850983    
 Ni   15.0543699      -21.4571495      -12.3882904    
 Ni   15.0543699      -16.4084091      -3.64361000    
 Ni   15.0543699      -18.9327793      -8.01595020    
 Ni   15.0543699      -11.3596697      -12.3882904    
 Ni   15.0543699      -6.31092978      -3.64361000    
 Ni   15.0543699      -8.83530045      -8.01595020    
 Ni   15.0543699      -16.4084091      -12.3882904    
 Ni   15.0543699      -11.3596697      -3.64361000    
 Ni   15.0543699      -13.8840399      -8.01595020    
 Ni   3.02601004      -7.57311010      -5.82978010    
 Ni   3.02601004      -10.0974798      -10.2021198    
 Ni   3.02601004      -5.04873991      -1.45745003    
 Ni   3.02601004      -12.6218500      -5.82978010    
 Ni   3.02601004      -15.1462202      -10.2021198    
 Ni   3.02601004      -10.0974798      -1.45745003    
 Ni   3.02601004      -17.6705894      -5.82978010    
 Ni   3.02601004      -20.1949596      -10.2021198    
 Ni   3.02601004      -15.1462202      -1.45745003    
 Ni   5.02237988      -10.0974798      -7.28723001    
 Ni   5.02237988      -12.6218500      -11.6595697    
 Ni   5.02237988      -7.57311010      -2.91489005    
 Ni   5.02237988      -15.1462202      -7.28723001    
 Ni   5.02237988      -17.6705894      -11.6595697    
 Ni   5.02237988      -12.6218500      -2.91489005    
 Ni   5.02237988      -5.04873991      -7.28723001    
 Ni   5.02237988      -7.57311010      -11.6595697    
 Ni   5.02237988      -2.52436996      -2.91489005    
 Ni   7.03247023      -12.6218500      -8.74468040    
 Ni   7.03247023      -7.57311010       0.00000000    
 Ni   7.03247023      -10.0974798      -4.37234020    
 Ni   7.03247023      -17.6705894      -8.74468040    
 Ni   7.03247023      -12.6218500       0.00000000    
 Ni   7.03247023      -15.1462202      -4.37234020    
 Ni   7.03247023      -7.57311010      -8.74468040    
 Ni   7.03247023      -2.52436996       0.00000000    
 Ni   7.03247023      -5.04873991      -4.37234020    
 Ni   9.04018974      -15.1462202      -10.2021198    
 Ni   9.04018974      -10.0974798      -1.45745003    
 Ni   9.04018974      -12.6218500      -5.82978010    
 Ni   9.04018974      -20.1949596      -10.2021198    
 Ni   9.04018974      -15.1462202      -1.45745003    
 Ni   9.04018974      -17.6705894      -5.82978010    
 Ni   9.04018974      -10.0974798      -10.2021198    
 Ni   9.04018974      -5.04873991      -1.45745003    
 Ni   9.04018974      -7.57311010      -5.82978010    
 Ni   11.0479097      -17.6705894      -11.6595697    
 Ni   11.0479097      -12.6218500      -2.91489005    
 Ni   11.0479097      -15.1462202      -7.28723001    
 Ni   11.0479097      -7.57311010      -11.6595697    
 Ni   11.0479097      -2.52436996      -2.91489005    
 Ni   11.0479097      -5.04873991      -7.28723001    
 Ni   11.0479097      -12.6218500      -11.6595697    
 Ni   11.0479097      -7.57311010      -2.91489005    
 Ni   11.0479097      -10.0974798      -7.28723001    
 Ni   13.0579996      -12.6218500       0.00000000    
 Ni   13.0579996      -15.1462202      -4.37234020    
 Ni   13.0579996      -17.6705894      -8.74468040    
 Ni   13.0579996      -2.52436996       0.00000000    
 Ni   13.0579996      -5.04873991      -4.37234020    
 Ni   13.0579996      -7.57311010      -8.74468040    
 Ni   13.0579996      -7.57311010       0.00000000    
 Ni   13.0579996      -10.0974798      -4.37234020    
 Ni   13.0579996      -12.6218500      -8.74468040    
 Ni   15.0543699      -15.1462202      -1.45745003    
 Ni   15.0543699      -17.6705894      -5.82978010    
 Ni   15.0543699      -20.1949596      -10.2021198    
 Ni   15.0543699      -5.04873991      -1.45745003    
 Ni   15.0543699      -7.57311010      -5.82978010    
 Ni   15.0543699      -10.0974798      -10.2021198    
 Ni   15.0543699      -10.0974798      -1.45745003    
 Ni   15.0543699      -12.6218500      -5.82978010    
 Ni   15.0543699      -15.1462202      -10.2021198    
 Ni   3.02601004      -8.83530045      -3.64361000    
 Ni   3.02601004      -11.3596697      -8.01595020    
 Ni   3.02601004      -13.8840399      -12.3882904    
 Ni   3.02601004      -13.8840399      -3.64361000    
 Ni   3.02601004      -16.4084091      -8.01595020    
 Ni   3.02601004      -18.9327793      -12.3882904    
 Ni   3.02601004      -3.78656006      -3.64361000    
 Ni   3.02601004      -6.31092978      -8.01595020    
 Ni   3.02601004      -8.83530045      -12.3882904    
 Ni   5.02237988      -11.3596697      -5.10105991    
 Ni   5.02237988      -13.8840399      -9.47340012    
 Ni   5.02237988      -8.83530045     -0.728720009    
 Ni   5.02237988      -16.4084091      -5.10105991    
 Ni   5.02237988      -18.9327793      -9.47340012    
 Ni   5.02237988      -13.8840399     -0.728720009    
 Ni   5.02237988      -6.31092978      -5.10105991    
 Ni   5.02237988      -8.83530045      -9.47340012    
 Ni   5.02237988      -3.78656006     -0.728720009    
 Ni   7.03247023      -13.8840399      -6.55850983    
 Ni   7.03247023      -16.4084091      -10.9308395    
 Ni   7.03247023      -11.3596697      -2.18617010    
 Ni   7.03247023      -3.78656006      -6.55850983    
 Ni   7.03247023      -6.31092978      -10.9308395    
 Ni   7.03247023      -1.26218998      -2.18617010    
 Ni   7.03247023      -8.83530045      -6.55850983    
 Ni   7.03247023      -11.3596697      -10.9308395    
 Ni   7.03247023      -6.31092978      -2.18617010    
 Ni   9.04018974      -16.4084091      -8.01595020    
 Ni   9.04018974      -18.9327793      -12.3882904    
 Ni   9.04018974      -13.8840399      -3.64361000    
 Ni   9.04018974      -6.31092978      -8.01595020    
 Ni   9.04018974      -8.83530045      -12.3882904    
 Ni   9.04018974      -3.78656006      -3.64361000    
 Ni   9.04018974      -11.3596697      -8.01595020    
 Ni   9.04018974      -13.8840399      -12.3882904    
 Ni   9.04018974      -8.83530045      -3.64361000    
 Ni   11.0479097      -18.9327793      -9.47340012    
 Ni   11.0479097      -13.8840399     -0.728720009    
 Ni   11.0479097      -16.4084091      -5.10105991    
 Ni   11.0479097      -8.83530045      -9.47340012    
 Ni   11.0479097      -3.78656006     -0.728720009    
 Ni   11.0479097      -6.31092978      -5.10105991    
 Ni   11.0479097      -13.8840399      -9.47340012    
 Ni   11.0479097      -8.83530045     -0.728720009    
 Ni   11.0479097      -11.3596697      -5.10105991    
 Ni   13.0579996      -6.31092978      -10.9308395    
 Ni   13.0579996      -1.26218998      -2.18617010    
 Ni   13.0579996      -3.78656006      -6.55850983    
 Ni   13.0579996      -11.3596697      -10.9308395    
 Ni   13.0579996      -6.31092978      -2.18617010    
 Ni   13.0579996      -8.83530045      -6.55850983    
 Ni   13.0579996      -16.4084091      -10.9308395    
 Ni   13.0579996      -11.3596697      -2.18617010    
 Ni   13.0579996      -13.8840399      -6.55850983    
 Ni   15.0543699      -8.83530045      -12.3882904    
 Ni   15.0543699      -3.78656006      -3.64361000    
 Ni   15.0543699      -6.31092978      -8.01595020    
 Ni   15.0543699      -13.8840399      -12.3882904    
 Ni   15.0543699      -8.83530045      -3.64361000    
 Ni   15.0543699      -11.3596697      -8.01595020    
 Ni   15.0543699      -18.9327793      -12.3882904    
 Ni   15.0543699      -13.8840399      -3.64361000    
 Ni   15.0543699      -16.4084091      -8.01595020    
 O    16.5300007      -10.0974798      -7.28723001    
         261
 Energy:  -1420.4934931999999      en  -1323.2126632000000      edisp  -97.280829999999995     
 X   0.00000000       0.00000000       0.00000000    
 X   0.00000000      -15.1462221       0.00000000    
 X   0.00000000      -7.57311106      -13.1170130    
 X   29.0000000       0.00000000       0.00000000    
 X   0.00000000      -22.7193336      -13.1170130    
 X   29.0000000      -15.1462221       0.00000000    
 X   29.0000000      -7.57311106      -13.1170130    
 X   29.0000000      -22.7193336      -13.1170130    
 Ni   3.02835011      -10.0974798      -5.82958984    
 Ni   3.02836990      -12.6219301      -10.2020597    
 Ni   3.02837992      -7.57326984      -1.45762002    
 Ni   3.02852011      -15.1461601      -5.82971001    
 Ni   3.02862000      -17.6705894      -10.2020998    
 Ni   3.02837992      -12.6216898      -1.45762002    
 Ni   3.02852011      -5.04881001      -5.82971001    
 Ni   3.02836990      -7.57302999      -10.2020597    
 Ni   3.02838993      -2.52436996      -1.45756996    
 Ni   5.02478981      -12.6218100      -7.28730011    
 Ni   5.02483988      -15.1459904      -11.6595097    
 Ni   5.02484989      -10.0974798      -2.91476011    
 Ni   5.02496004      -17.6705894      -7.28711987    
 Ni   5.02483988      -20.1951904      -11.6595097    
 Ni   5.02484989      -15.1463003      -2.91490006    
 Ni   5.02478981      -7.57315016      -7.28730011    
 Ni   5.02475977      -10.0974798      -11.6596498    
 Ni   5.02484989      -5.04865980      -2.91490006    
 Ni   7.03253984      -15.1463499      -8.74477959    
 Ni   7.03264999      -10.0974798      -5.99999985E-05
 Ni   7.03263998      -12.6218204      -4.37233019    
 Ni   7.03253984      -5.04861021      -8.74477959    
 Ni   7.03261995       9.00000014E-05  -4.99999987E-05
 Ni   7.03262997      -2.52436996      -4.37231016    
 Ni   7.03249979      -10.0974798      -8.74458027    
 Ni   7.03261995      -5.04883003      -4.99999987E-05
 Ni   7.03263998      -7.57315016      -4.37233019    
 Ni   9.04001999      -17.6705894      -10.2020798    
 Ni   9.03995037      -12.6217499      -1.45746005    
 Ni   9.04012012      -15.1462898      -5.82972002    
 Ni   9.04010963      -7.57306004      -10.2021503    
 Ni   9.04004955      -2.52436996      -1.45756996    
 Ni   9.04012012      -5.04867983      -5.82972002    
 Ni   9.04010963      -12.6218996      -10.2021503    
 Ni   9.03995037      -7.57320976      -1.45746005    
 Ni   9.04004955      -10.0974798      -5.82973003    
 Ni   11.0479898      -20.1950493      -11.6594801    
 Ni   11.0478697      -15.1462097      -2.91493011    
 Ni   11.0481005      -17.6705894      -7.28720999    
 Ni   11.0479803      -10.0974798      -11.6596003    
 Ni   11.0478697      -5.04875994      -2.91493011    
 Ni   11.0477695      -7.57300997      -7.28735018    
 Ni   11.0479898      -15.1461401      -11.6594801    
 Ni   11.0471401      -10.0974798      -2.91430998    
 Ni   11.0477695      -12.6219501      -7.28735018    
 Ni   13.0554504       9.00000014E-05   9.99999975E-06
 Ni   13.0555000      -2.52436996      -4.37231016    
 Ni   13.0553503      -5.04890013      -8.74454021    
 Ni   13.0554504      -5.04883003       9.99999975E-06
 Ni   13.0557899      -7.57320023      -4.37251997    
 Ni   13.0527697      -10.0974798      -8.74555016    
 Ni   13.0554199      -10.0974798       3.99999990E-05
 Ni   13.0557899      -12.6217604      -4.37251997    
 Ni   13.0553503      -15.1460600      -8.74454021    
 Ni   15.0522604      -2.52436996      -1.45747995    
 Ni   15.0518703      -5.04876995      -5.82973003    
 Ni   15.0510798      -7.57223988      -10.2025700    
 Ni   15.0519199      -7.57310009      -1.45756996    
 Ni   15.0791397      -10.0974798      -5.84100008    
 Ni   15.0510798      -12.6227303      -10.2025700    
 Ni   15.0519199      -12.6218596      -1.45756996    
 Ni   15.0518703      -15.1461897      -5.82973003    
 Ni   15.0519505      -17.6705894      -10.2020798    
 Ni   3.02852011      -6.31090021      -3.64370990    
 Ni   3.02835011      -8.83512974      -8.01605034    
 Ni   3.02852011      -11.3595695      -12.3882704    
 Ni   3.02836990      -11.3595695      -3.64356995    
 Ni   3.02836990      -13.8840303      -8.01605034    
 Ni   3.02862000      -16.4083900      -12.3882999    
 Ni   3.02838993      -16.4085197      -3.64354992    
 Ni   3.02837992      -18.9330006      -8.01601028    
 Ni   3.02837992      -21.4572105      -12.3880701    
 Ni   5.02478981      -8.83537006      -5.10105991    
 Ni   5.02478981      -11.3597097      -9.47332954    
 Ni   5.02496004      -6.31083012     -0.728779972    
 Ni   5.02475977      -13.8841105      -5.10101986    
 Ni   5.02483988      -16.4082508      -9.47323036    
 Ni   5.02483988      -11.3597298     -0.728950024    
 Ni   5.02484989      -3.78653002      -5.10097980    
 Ni   5.02484989      -6.31081009      -9.47346020    
 Ni   5.02484989      -1.26224005     -0.728789985    
 Ni   7.03249979      -11.3595896      -6.55854988    
 Ni   7.03253984      -13.8842001      -10.9308996    
 Ni   7.03253984      -8.83533001      -2.18600011    
 Ni   7.03261995      -16.4084892      -6.55855989    
 Ni   7.03264999      -18.9328308      -10.9308205    
 Ni   7.03261995      -13.8840303      -2.18606997    
 Ni   7.03263998      -6.31093979      -6.55853987    
 Ni   7.03263998      -8.83526993      -10.9308205    
 Ni   7.03262997      -3.78653002      -2.18618011    
 Ni   9.04010963      -13.8840904      -8.01597977    
 Ni   9.04001999      -16.4083691      -12.3883104    
 Ni   9.04010963      -11.3596697      -3.64354992    
 Ni   9.03995037      -18.9328403      -8.01603985    
 Ni   9.03995037      -21.4570999      -12.3881903    
 Ni   9.04004955      -16.4085102      -3.64354992    
 Ni   9.04004955      -8.83524990      -8.01597977    
 Ni   9.04012012      -11.3596401      -12.3883801    
 Ni   9.04012012      -6.31084013      -3.64358997    
 Ni   11.0479898      -16.4082909      -9.47336960    
 Ni   11.0479898      -11.3596296     -0.728839993    
 Ni   11.0479803      -13.8840704      -5.10103989    
 Ni   11.0471401      -6.31042004      -9.47369003    
 Ni   11.0478697      -1.26221001     -0.728690028    
 Ni   11.0478697      -3.78660011      -5.10105991    
 Ni   11.0477695      -11.3598204      -9.47342014    
 Ni   11.0481005      -6.31091022     -0.728730023    
 Ni   11.0477695      -8.83535004      -5.10091019    
 Ni   13.0554199      -18.9327393      -10.9308701    
 Ni   13.0554504      -13.8839798      -2.18608999    
 Ni   13.0554504      -16.4084492      -6.55858994    
 Ni   13.0557899      -8.83541012      -10.9306698    
 Ni   13.0555000      -3.78653002      -2.18618011    
 Ni   13.0557899      -6.31113005      -6.55848980    
 Ni   13.0553503      -13.8838501      -10.9307699    
 Ni   13.0553503      -8.83526039      -2.18636990    
 Ni   13.0527697      -11.3604202      -6.55807018    
 Ni   15.0519199      -21.4572601      -12.3882399    
 Ni   15.0522604      -16.4084396      -3.64359999    
 Ni   15.0519199      -18.9328804      -8.01587963    
 Ni   15.0518703      -11.3596096      -12.3882904    
 Ni   15.0518703      -6.31090021      -3.64367008    
 Ni   15.0791397      -8.84500980      -8.01033974    
 Ni   15.0519505      -16.4083691      -12.3883104    
 Ni   15.0510798      -11.3596201      -3.64263010    
 Ni   15.0510798      -13.8848696      -8.01648045    
 Ni   3.02857995      -7.57305002      -5.82975006    
 Ni   3.02857995      -10.0974798      -10.2021904    
 Ni   3.02842999      -5.04856014      -1.45755005    
 Ni   3.02857995      -12.6219101      -5.82975006    
 Ni   3.02844000      -15.1461201      -10.2020597    
 Ni   3.02844000      -10.0974798      -1.45755994    
 Ni   3.02842999      -17.6705894      -5.82957983    
 Ni   3.02844000      -20.1950607      -10.2020597    
 Ni   3.02842999      -15.1464005      -1.45755005    
 Ni   5.02504015      -10.0974798      -7.28723001    
 Ni   5.02484989      -12.6218901      -11.6596003    
 Ni   5.02484989      -7.57311010      -2.91483998    
 Ni   5.02484989      -15.1462698      -7.28725004    
 Ni   5.02518988      -17.6705894      -11.6595697    
 Ni   5.02484989      -12.6218596      -2.91483998    
 Ni   5.02484989      -5.04868984      -7.28725004    
 Ni   5.02484989      -7.57307005      -11.6596003    
 Ni   5.02484989      -2.52436996      -2.91489005    
 Ni   7.03269005      -12.6217299      -8.74460030    
 Ni   7.03254986      -7.57309008      -9.99999975E-06
 Ni   7.03269005      -10.0974798      -4.37247992    
 Ni   7.03254986      -17.6705894      -8.74466038    
 Ni   7.03254986      -12.6218700      -9.99999975E-06
 Ni   7.03264999      -15.1462803      -4.37230015    
 Ni   7.03269005      -7.57322979      -8.74460030    
 Ni   7.03264999      -2.52436996      -7.00000019E-05
 Ni   7.03264999      -5.04867983      -4.37230015    
 Ni   9.03958988      -15.1464701      -10.2022600    
 Ni   9.03958988      -10.0974798      -1.45716000    
 Ni   9.04018021      -12.6218395      -5.82979012    
 Ni   9.03958988      -20.1947193      -10.2022600    
 Ni   9.03991985      -15.1462803      -1.45747995    
 Ni   9.03991985      -17.6705894      -5.82972002    
 Ni   9.04018021      -10.0974798      -10.2021103    
 Ni   9.03991985      -5.04868984      -1.45747995    
 Ni   9.04018021      -7.57312012      -5.82979012    
 Ni   11.0478001      -17.6705894      -11.6595697    
 Ni   11.0480604      -12.6218901      -2.91498995    
 Ni   11.0480604      -15.1461496      -7.28714991    
 Ni   11.0480604      -7.57321978      -11.6595497    
 Ni   11.0477400      -2.52436996      -2.91489005    
 Ni   11.0480604      -5.04881001      -7.28714991    
 Ni   11.0480604      -12.6217403      -11.6595497    
 Ni   11.0480604      -7.57307005      -2.91498995    
 Ni   11.0480404      -10.0974798      -7.28723001    
 Ni   13.0553398      -12.6217499       5.99999985E-05
 Ni   13.0553703      -15.1462097      -4.37235022    
 Ni   13.0553398      -17.6705894      -8.74479961    
 Ni   13.0553703      -2.52436996       1.99999995E-05
 Ni   13.0553703      -5.04875994      -4.37235022    
 Ni   13.0590000      -7.57534981      -8.74337959    
 Ni   13.0553398      -7.57321978       5.99999985E-05
 Ni   13.0590000      -10.0974798      -4.37491989    
 Ni   13.0590000      -12.6196098      -8.74337959    
 Ni   15.0517797      -15.1463203      -1.45749998    
 Ni   15.0517797      -17.6705894      -5.82966995    
 Ni   15.0520096      -20.1948605      -10.2021799    
 Ni   15.0517797      -5.04863977      -1.45749998    
 Ni   15.0506802      -7.56868982      -5.82722998    
 Ni   15.0506802      -10.0974798      -10.2072201    
 Ni   15.0520096      -10.0974798      -1.45732999    
 Ni   15.0506802      -12.6262703      -5.82722998    
 Ni   15.0520096      -15.1463203      -10.2021799    
 Ni   3.02836990      -8.83539009      -3.64356995    
 Ni   3.02835011      -11.3598299      -8.01605034    
 Ni   3.02837992      -13.8839703      -12.3880701    
 Ni   3.02852011      -13.8840599      -3.64370990    
 Ni   3.02837992      -16.4081802      -8.01601028    
 Ni   3.02862000      -18.9328003      -12.3882999    
 Ni   3.02838993      -3.78644991      -3.64354992    
 Ni   3.02836990      -6.31093979      -8.01605034    
 Ni   3.02852011      -8.83539009      -12.3882704    
 Ni   5.02478981      -11.3595896      -5.10105991    
 Ni   5.02484989      -13.8841496      -9.47346020    
 Ni   5.02483988      -8.83522987     -0.728950024    
 Ni   5.02484989      -16.4084396      -5.10097980    
 Ni   5.02483988      -18.9329395      -9.47323036    
 Ni   5.02496004      -13.8841295     -0.728779972    
 Ni   5.02475977      -6.31085014      -5.10101986    
 Ni   5.02478981      -8.83526039      -9.47332954    
 Ni   5.02484989      -3.78649998     -0.728789985    
 Ni   7.03263998      -13.8840199      -6.55853987    
 Ni   7.03264999      -16.4083595      -10.9308205    
 Ni   7.03253984      -11.3596401      -2.18600011    
 Ni   7.03261995      -3.78646994      -6.55855989    
 Ni   7.03253984      -6.31077003      -10.9308996    
 Ni   7.03262997      -1.26221001      -2.18618011    
 Ni   7.03249979      -8.83537960      -6.55854988    
 Ni   7.03263998      -11.3596897      -10.9308205    
 Ni   7.03261995      -6.31092978      -2.18606997    
 Ni   9.03995037      -16.4083500      -8.01603985    
 Ni   9.04001999      -18.9328098      -12.3883104    
 Ni   9.04012012      -13.8841200      -3.64358997    
 Ni   9.04010963      -6.31087017      -8.01597977    
 Ni   9.04012012      -8.83532047      -12.3883801    
 Ni   9.04004955      -3.78644991      -3.64354992    
 Ni   9.04004955      -11.3597097      -8.01597977    
 Ni   9.03995037      -13.8840799      -12.3881903    
 Ni   9.04010963      -8.83530045      -3.64354992    
 Ni   11.0479898      -18.9328899      -9.47336960    
 Ni   11.0481005      -13.8840504     -0.728730023    
 Ni   11.0478697      -16.4083691      -5.10105991    
 Ni   11.0477695      -8.83514023      -9.47342014    
 Ni   11.0478697      -3.78653002     -0.728690028    
 Ni   11.0479803      -6.31089020      -5.10103989    
 Ni   11.0471401      -13.8845396      -9.47369003    
 Ni   11.0479898      -8.83533001     -0.728839993    
 Ni   11.0477695      -11.3596096      -5.10091019    
 Ni   13.0553503      -6.31112003      -10.9307699    
 Ni   13.0555000      -1.26221001      -2.18618011    
 Ni   13.0554504      -3.78650999      -6.55858994    
 Ni   13.0557899      -11.3595505      -10.9306698    
 Ni   13.0554504      -6.31097984      -2.18608999    
 Ni   13.0527697      -8.83454037      -6.55807018    
 Ni   13.0554199      -16.4084492      -10.9308701    
 Ni   13.0553503      -11.3597002      -2.18636990    
 Ni   13.0557899      -13.8838301      -6.55848980    
 Ni   15.0518703      -8.83535957      -12.3882904    
 Ni   15.0522604      -3.78653002      -3.64359999    
 Ni   15.0510798      -6.31010008      -8.01648045    
 Ni   15.0519199      -13.8839302      -12.3882399    
 Ni   15.0510798      -8.83533955      -3.64263010    
 Ni   15.0791397      -11.3499498      -8.01033974    
 Ni   15.0519505      -18.9328098      -12.3883104    
 Ni   15.0518703      -13.8840599      -3.64367008    
 Ni   15.0519199      -16.4083004      -8.01587963    
 O    16.4586601      -10.0974798      -7.28723001    
         261
 Energy:  -1421.0776653000000      en  -1323.7089053000000      edisp  -97.368759999999995     
 X   0.00000000       0.00000000       0.00000000    
 X   0.00000000      -15.1462221       0.00000000    
 X   0.00000000      -7.57311106      -13.1170130    
 X   29.0000000       0.00000000       0.00000000    
 X   0.00000000      -22.7193336      -13.1170130    
 X   29.0000000      -15.1462221       0.00000000    
 X   29.0000000      -7.57311106      -13.1170130    
 X   29.0000000      -22.7193336      -13.1170130    
 Ni   3.03483009      -10.0974798      -5.82906008    
 Ni   3.03491998      -12.6221600      -10.2018900    
 Ni   3.03496003      -7.57371998      -1.45808005    
 Ni   3.03546000      -15.1459799      -5.82952023    
 Ni   3.03585005      -17.6705894      -10.2020397    
 Ni   3.03496003      -12.6212502      -1.45808005    
 Ni   3.03546000      -5.04898024      -5.82952023    
 Ni   3.03491998      -7.57280016      -10.2018900    
 Ni   3.03499007      -2.52436996      -1.45791996    