NiAl                                    
            1
     0.000000  -15.146222    0.000000
     0.000000   -7.573111  -13.117013
    29.000000    0.000000    0.000000
   Ni   O 
   252     1
Direct configuration=     1
   0.44444444  0.44444444  0.10434507
   0.44444444  0.77777778  0.10434507
   0.44444444  0.11111111  0.10434507
   0.77777778  0.44444444  0.10434507
   0.77777778  0.77777778  0.10434507
   0.77777778  0.11111111  0.10434507
   0.11111111  0.44444444  0.10434507
   0.11111111  0.77777778  0.10434507
   0.11111111  0.11111111  0.10434507
   0.55555556  0.55555556  0.17318538
   0.55555556  0.88888889  0.17318538
   0.55555556  0.22222222  0.17318538
   0.88888889  0.55555556  0.17318538
   0.88888889  0.88888889  0.17318538
   0.88888889  0.22222222  0.17318538
   0.22222222  0.55555556  0.17318538
   0.22222222  0.88888889  0.17318538
   0.22222222  0.22222222  0.17318538
   0.66666667  0.66666667  0.24249888
   0.66666667  0.00000000  0.24249888
   0.66666667  0.33333333  0.24249888
   0.00000000  0.66666667  0.24249888
   0.00000000  0.00000000  0.24249888
   0.00000000  0.33333333  0.24249888
   0.33333333  0.66666667  0.24249888
   0.33333333  0.00000000  0.24249888
   0.33333333  0.33333333  0.24249888
   0.77777778  0.77777778  0.31173066
   0.77777778  0.11111111  0.31173066
   0.77777778  0.44444444  0.31173066
   0.11111111  0.77777778  0.31173066
   0.11111111  0.11111111  0.31173066
   0.11111111  0.44444444  0.31173066
   0.44444444  0.77777778  0.31173066
   0.44444444  0.11111111  0.31173066
   0.44444444  0.44444444  0.31173066
   0.88888889  0.88888889  0.38096243
   0.88888889  0.22222222  0.38096243
   0.88888889  0.55555556  0.38096243
   0.22222222  0.88888889  0.38096243
   0.22222222  0.22222222  0.38096243
   0.22222222  0.55555556  0.38096243
   0.55555556  0.88888889  0.38096243
   0.55555556  0.22222222  0.38096243
   0.55555556  0.55555556  0.38096243
   0.00000000  0.00000000  0.45027593
   0.00000000  0.33333333  0.45027593
   0.00000000  0.66666667  0.45027593
   0.33333333  0.00000000  0.45027593
   0.33333333  0.33333333  0.45027593
   0.33333333  0.66666667  0.45027593
   0.66666667  0.00000000  0.45027593
   0.66666667  0.33333333  0.45027593
   0.66666667  0.66666667  0.45027593
   0.11111111  0.11111111  0.51911624
   0.11111111  0.44444444  0.51911624
   0.11111111  0.77777778  0.51911624
   0.44444444  0.11111111  0.51911624
   0.44444444  0.44444444  0.51911624
   0.44444444  0.77777778  0.51911624
   0.77777778  0.11111111  0.51911624
   0.77777778  0.44444444  0.51911624
   0.77777778  0.77777778  0.51911624
   0.27777778  0.27777778  0.10434507
   0.27777778  0.61111111  0.10434507
   0.27777778  0.94444444  0.10434507
   0.61111111  0.27777778  0.10434507
   0.61111111  0.61111111  0.10434507
   0.61111111  0.94444444  0.10434507
   0.94444444  0.27777778  0.10434507
   0.94444444  0.61111111  0.10434507
   0.94444444  0.94444444  0.10434507
   0.38888889  0.38888889  0.17318538
   0.38888889  0.72222222  0.17318538
   0.38888889  0.05555556  0.17318538
   0.72222222  0.38888889  0.17318538
   0.72222222  0.72222222  0.17318538
   0.72222222  0.05555556  0.17318538
   0.05555556  0.38888889  0.17318538
   0.05555556  0.72222222  0.17318538
   0.05555556  0.05555556  0.17318538
   0.50000000  0.50000000  0.24249888
   0.50000000  0.83333333  0.24249888
   0.50000000  0.16666667  0.24249888
   0.83333333  0.50000000  0.24249888
   0.83333333  0.83333333  0.24249888
   0.83333333  0.16666667  0.24249888
   0.16666667  0.50000000  0.24249888
   0.16666667  0.83333333  0.24249888
   0.16666667  0.16666667  0.24249888
   0.61111111  0.61111111  0.31173066
   0.61111111  0.94444444  0.31173066
   0.61111111  0.27777778  0.31173066
   0.94444444  0.61111111  0.31173066
   0.94444444  0.94444444  0.31173066
   0.94444444  0.27777778  0.31173066
   0.27777778  0.61111111  0.31173066
   0.27777778  0.94444444  0.31173066
   0.27777778  0.27777778  0.31173066
   0.72222222  0.72222222  0.38096243
   0.72222222  0.05555556  0.38096243
   0.72222222  0.38888889  0.38096243
   0.05555556  0.72222222  0.38096243
   0.05555556  0.05555556  0.38096243
   0.05555556  0.38888889  0.38096243
   0.38888889  0.72222222  0.38096243
   0.38888889  0.05555556  0.38096243
   0.38888889  0.38888889  0.38096243
   0.83333333  0.83333333  0.45027593
   0.83333333  0.16666667  0.45027593
   0.83333333  0.50000000  0.45027593
   0.16666667  0.83333333  0.45027593
   0.16666667  0.16666667  0.45027593
   0.16666667  0.50000000  0.45027593
   0.50000000  0.83333333  0.45027593
   0.50000000  0.16666667  0.45027593
   0.50000000  0.50000000  0.45027593
   0.94444444  0.94444444  0.51911624
   0.94444444  0.27777778  0.51911624
   0.94444444  0.61111111  0.51911624
   0.27777778  0.94444444  0.51911624
   0.27777778  0.27777778  0.51911624
   0.27777778  0.61111111  0.51911624
   0.61111111  0.94444444  0.51911624
   0.61111111  0.27777778  0.51911624
   0.61111111  0.61111111  0.51911624
   0.27777778  0.44444444  0.10434507
   0.27777778  0.77777778  0.10434507
   0.27777778  0.11111111  0.10434507
   0.61111111  0.44444444  0.10434507
   0.61111111  0.77777778  0.10434507
   0.61111111  0.11111111  0.10434507
   0.94444444  0.44444444  0.10434507
   0.94444444  0.77777778  0.10434507
   0.94444444  0.11111111  0.10434507
   0.38888889  0.55555556  0.17318538
   0.38888889  0.88888889  0.17318538
   0.38888889  0.22222222  0.17318538
   0.72222222  0.55555556  0.17318538
   0.72222222  0.88888889  0.17318538
   0.72222222  0.22222222  0.17318538
   0.05555556  0.55555556  0.17318538
   0.05555556  0.88888889  0.17318538
   0.05555556  0.22222222  0.17318538
   0.50000000  0.66666667  0.24249888
   0.50000000  0.00000000  0.24249888
   0.50000000  0.33333333  0.24249888
   0.83333333  0.66666667  0.24249888
   0.83333333  0.00000000  0.24249888
   0.83333333  0.33333333  0.24249888
   0.16666667  0.66666667  0.24249888
   0.16666667  0.00000000  0.24249888
   0.16666667  0.33333333  0.24249888
   0.61111111  0.77777778  0.31173066
   0.61111111  0.11111111  0.31173066
   0.61111111  0.44444444  0.31173066
   0.94444444  0.77777778  0.31173066
   0.94444444  0.11111111  0.31173066
   0.94444444  0.44444444  0.31173066
   0.27777778  0.77777778  0.31173066
   0.27777778  0.11111111  0.31173066
   0.27777778  0.44444444  0.31173066
   0.72222222  0.88888889  0.38096243
   0.72222222  0.22222222  0.38096243
   0.72222222  0.55555556  0.38096243
   0.05555556  0.88888889  0.38096243
   0.05555556  0.22222222  0.38096243
   0.05555556  0.55555556  0.38096243
   0.38888889  0.88888889  0.38096243
   0.38888889  0.22222222  0.38096243
   0.38888889  0.55555556  0.38096243
   0.83333333  0.00000000  0.45027593
   0.83333333  0.33333333  0.45027593
   0.83333333  0.66666667  0.45027593
   0.16666667  0.00000000  0.45027593
   0.16666667  0.33333333  0.45027593
   0.16666667  0.66666667  0.45027593
   0.50000000  0.00000000  0.45027593
   0.50000000  0.33333333  0.45027593
   0.50000000  0.66666667  0.45027593
   0.94444444  0.11111111  0.51911624
   0.94444444  0.44444444  0.51911624
   0.94444444  0.77777778  0.51911624
   0.27777778  0.11111111  0.51911624
   0.27777778  0.44444444  0.51911624
   0.27777778  0.77777778  0.51911624
   0.61111111  0.11111111  0.51911624
   0.61111111  0.44444444  0.51911624
   0.61111111  0.77777778  0.51911624
   0.44444444  0.27777778  0.10434507
   0.44444444  0.61111111  0.10434507
   0.44444444  0.94444444  0.10434507
   0.77777778  0.27777778  0.10434507
   0.77777778  0.61111111  0.10434507
   0.77777778  0.94444444  0.10434507
   0.11111111  0.27777778  0.10434507
   0.11111111  0.61111111  0.10434507
   0.11111111  0.94444444  0.10434507
   0.55555556  0.38888889  0.17318538
   0.55555556  0.72222222  0.17318538
   0.55555556  0.05555556  0.17318538
   0.88888889  0.38888889  0.17318538
   0.88888889  0.72222222  0.17318538
   0.88888889  0.05555556  0.17318538
   0.22222222  0.38888889  0.17318538
   0.22222222  0.72222222  0.17318538
   0.22222222  0.05555556  0.17318538
   0.66666667  0.50000000  0.24249888
   0.66666667  0.83333333  0.24249888
   0.66666667  0.16666667  0.24249888
   0.00000000  0.50000000  0.24249888
   0.00000000  0.83333333  0.24249888
   0.00000000  0.16666667  0.24249888
   0.33333333  0.50000000  0.24249888
   0.33333333  0.83333333  0.24249888
   0.33333333  0.16666667  0.24249888
   0.77777778  0.61111111  0.31173066
   0.77777778  0.94444444  0.31173066
   0.77777778  0.27777778  0.31173066
   0.11111111  0.61111111  0.31173066
   0.11111111  0.94444444  0.31173066
   0.11111111  0.27777778  0.31173066
   0.44444444  0.61111111  0.31173066
   0.44444444  0.94444444  0.31173066
   0.44444444  0.27777778  0.31173066
   0.88888889  0.72222222  0.38096243
   0.88888889  0.05555556  0.38096243
   0.88888889  0.38888889  0.38096243
   0.22222222  0.72222222  0.38096243
   0.22222222  0.05555556  0.38096243
   0.22222222  0.38888889  0.38096243
   0.55555556  0.72222222  0.38096243
   0.55555556  0.05555556  0.38096243
   0.55555556  0.38888889  0.38096243
   0.00000000  0.83333333  0.45027593
   0.00000000  0.16666667  0.45027593
   0.00000000  0.50000000  0.45027593
   0.33333333  0.83333333  0.45027593
   0.33333333  0.16666667  0.45027593
   0.33333333  0.50000000  0.45027593
   0.66666667  0.83333333  0.45027593
   0.66666667  0.16666667  0.45027593
   0.66666667  0.50000000  0.45027593
   0.11111111  0.94444444  0.51911624
   0.11111111  0.27777778  0.51911624
   0.11111111  0.61111111  0.51911624
   0.44444444  0.94444444  0.51911624
   0.44444444  0.27777778  0.51911624
   0.44444444  0.61111111  0.51911624
   0.77777778  0.94444444  0.51911624
   0.77777778  0.27777778  0.51911624
   0.77777778  0.61111111  0.51911624
   0.38888889  0.55555556  0.57000000
Direct configuration=     2
   0.44445181  0.44442970  0.10442581
   0.44445223  0.77777316  0.10442662
   0.44444858  0.11112402  0.10442705
   0.77777616  0.44443912  0.10443164
   0.77777863  0.77777607  0.10443522
   0.77776073  0.11112402  0.10442705
   0.11111805  0.44443912  0.10443164
   0.11110795  0.77777316  0.10442662
   0.11110632  0.11112069  0.10442729
   0.55555061  0.55556062  0.17326865
   0.55554254  0.88888484  0.17327031
   0.55556046  0.22221241  0.17327058
   0.88889293  0.55554748  0.17327457
   0.88890595  0.88888484  0.17327031
   0.88889369  0.22222319  0.17327069
   0.22222211  0.55556062  0.17326865
   0.22221909  0.88889515  0.17326757
   0.22221645  0.22222319  0.17327069
   0.66667113  0.66667501  0.24250124
   0.66666453  0.00000428  0.24250531
   0.66666449  0.33333296  0.24250484
  -0.00001281  0.66667501  0.24250124
  -0.00000788  0.00000372  0.24250417
   0.00000114  0.33333105  0.24250444
   0.33333682  0.66665969  0.24250010
   0.33333749  0.00000372  0.24250417
   0.33333589  0.33333296  0.24250484
   0.77777940  0.77777454  0.31172498
   0.77777053  0.11111187  0.31172246
   0.77778447  0.44443962  0.31172830
   0.11110651  0.77778005  0.31172782
   0.11110643  0.11112048  0.31172590
   0.11110924  0.44443962  0.31172830
   0.44444678  0.77778005  0.31172782
   0.44445094  0.11111187  0.31172246
   0.44444638  0.44444057  0.31172580
   0.88889773  0.88888227  0.38096511
   0.88888642  0.22222498  0.38096097
   0.88888947  0.55555439  0.38096905
   0.22222086  0.88889161  0.38096475
   0.22222193  0.22222498  0.38096097
   0.22221085  0.55556490  0.38095767
   0.55555334  0.88888227  0.38096511
   0.55557768  0.22217797  0.38093601
   0.55555758  0.55556490  0.38095767
  -0.00000597 -0.00000043  0.45018804
   0.00000094  0.33333145  0.45018963
   0.00001535  0.66665674  0.45018432
   0.33333973 -0.00000043  0.45018804
   0.33333224  0.33334743  0.45019981
   0.33329998  0.66673337  0.45009567
   0.66666837 -0.00000341  0.45018689
   0.66665366  0.33334743  0.45019981
   0.66666124  0.66665674  0.45018432
   0.11110980  0.11111374  0.51904358
   0.11111518  0.44444054  0.51902988
   0.11103615  0.77781231  0.51900267
   0.44443927  0.11112043  0.51903172
   0.44401675  0.44529983  0.51997022
   0.44448488  0.77781231  0.51900267
   0.77777363  0.11112043  0.51903172
   0.77777761  0.44444054  0.51902988
   0.77777935  0.77777464  0.51903281
   0.27777246  0.27778472  0.10443164
   0.27776304  0.61111848  0.10442581
   0.27777246  0.94444283  0.10443164
   0.61110649  0.27777461  0.10442662
   0.61110649  0.61111889  0.10442662
   0.61110941  0.94444530  0.10443522
   0.94445403  0.27777299  0.10442729
   0.94445736  0.61111525  0.10442705
   0.94445736  0.94442740  0.10442705
   0.38889395  0.38888877  0.17326865
   0.38889395  0.72221728  0.17326865
   0.38888081  0.05555959  0.17327457
   0.72222848  0.38888576  0.17326757
   0.72221818  0.72220920  0.17327031
   0.72221818  0.05557262  0.17327031
   0.05555653  0.38888311  0.17327069
   0.05554574  0.72222713  0.17327058
   0.05555653  0.05556036  0.17327069
   0.49999303  0.50000349  0.24250010
   0.50000834  0.83333780  0.24250124
   0.50000834  0.16665386  0.24250124
   0.83333706  0.50000416  0.24250417
   0.83333762  0.83333119  0.24250531
   0.83333706  0.16665878  0.24250417
   0.16666629  0.50000255  0.24250484
   0.16666629  0.83333115  0.24250484
   0.16666438  0.16666781  0.24250444
   0.61111338  0.61111344  0.31172782
   0.61110788  0.94444606  0.31172498
   0.61111338  0.27777318  0.31172782
   0.94444521  0.61111760  0.31172246
   0.94444521  0.94443719  0.31172246
   0.94445382  0.27777309  0.31172590
   0.27777390  0.61111305  0.31172580
   0.27777296  0.94445114  0.31172830
   0.27777296  0.27777591  0.31172830
   0.72221560  0.72222000  0.38096511
   0.72221560  0.05556439  0.38096511
   0.72222494  0.38888753  0.38096475
   0.05551130  0.72224435  0.38093601
   0.05555831  0.05555309  0.38096097
   0.05555831  0.38888860  0.38096097
   0.38889823  0.72222425  0.38095767
   0.38888772  0.05555614  0.38096905
   0.38889823  0.38887752  0.38095767
   0.83332993  0.83333504  0.45018689
   0.83333290  0.16666070  0.45018804
   0.83333290  0.50000640  0.45018804
   0.16668077  0.83332033  0.45019981
   0.16666478  0.16666761  0.45018963
   0.16668077  0.49999891  0.45019981
   0.49999007  0.83332791  0.45018432
   0.49999007  0.16668202  0.45018432
   0.50006670  0.49996665  0.45009567
   0.94445377  0.94444030  0.51903172
   0.94444707  0.27777647  0.51904358
   0.94445377  0.61110593  0.51903172
   0.27777388  0.94444428  0.51902988
   0.27777388  0.27778185  0.51902988
   0.27863316  0.61068342  0.51997022
   0.61110797  0.94444601  0.51903281
   0.61114564  0.27770281  0.51900267
   0.61114564  0.61115154  0.51900267
   0.27777519  0.44444185  0.10443375
   0.27777519  0.77778296  0.10443375
   0.27776229  0.11111885  0.10442856
   0.61111630  0.44444185  0.10443375
   0.61110670  0.77777337  0.10442900
   0.61110670  0.11111993  0.10442900
   0.94445219  0.44442896  0.10442856
   0.94445326  0.77777337  0.10442900
   0.94445219  0.11111885  0.10442856
   0.38888889  0.55555556  0.17327739
   0.38889062  0.88889116  0.17327056
   0.38889062  0.22221822  0.17327056
   0.72222450  0.55555729  0.17327056
   0.72222222  0.88888889  0.17328256
   0.72222450  0.22221822  0.17327056
   0.05555155  0.55555729  0.17327056
   0.05555155  0.88889116  0.17327056
   0.05555556  0.22222222  0.17327074
   0.49999463  0.66666130  0.24250641
   0.49999847  0.00000076  0.24250164
   0.49999463  0.33334407  0.24250641
   0.83333410  0.66666514  0.24250164
   0.83333410  0.00000076  0.24250164
   0.83333879  0.33333060  0.24250533
   0.16667740  0.66666130  0.24250641
   0.16666394  0.00000546  0.24250533
   0.16666394  0.33333060  0.24250533
   0.61112182  0.77778848  0.31170995
   0.61112182  0.11108970  0.31170995
   0.61111011  0.44444494  0.31173031
   0.94442303  0.77778848  0.31170995
   0.94444687  0.11111353  0.31172139
   0.94444687  0.44443960  0.31172139
   0.27777828  0.77777678  0.31173031
   0.27777293  0.11111353  0.31172139
   0.27777828  0.44444494  0.31173031
   0.72222222  0.88888889  0.38095869
   0.72222083  0.22223001  0.38096775
   0.72222083  0.55554916  0.38096775
   0.05556335  0.88888749  0.38096775
   0.05555556  0.22222222  0.38095659
   0.05556335  0.55554916  0.38096775
   0.38888250  0.88888749  0.38096775
   0.38888250  0.22223001  0.38096775
   0.38888889  0.55555556  0.38096683
   0.83332867 -0.00000467  0.45018415
   0.83333202  0.33333399  0.45018505
   0.83332867  0.66667600  0.45018415
   0.16666732 -0.00000131  0.45018505
   0.16666732  0.33333399  0.45018505
   0.16686358  0.66656821  0.45031041
   0.50000933 -0.00000467  0.45018415
   0.49990154  0.33353025  0.45031041
   0.49990154  0.66656821  0.45031041
   0.94444885  0.11111552  0.51902699
   0.94444885  0.44443563  0.51902699
   0.94443565  0.77778218  0.51903476
   0.27776897  0.11111552  0.51902699
   0.27758340  0.44425006  0.51898906
   0.27758340  0.77816654  0.51898906
   0.61111551  0.11110231  0.51903476
   0.61149987  0.44425006  0.51898906
   0.61111551  0.77778218  0.51903476
   0.44445223  0.27777461  0.10442662
   0.44445181  0.61111848  0.10442581
   0.44444858  0.94442740  0.10442705
   0.77777616  0.27778472  0.10443164
   0.77776073  0.61111525  0.10442705
   0.77777863  0.94444530  0.10443522
   0.11110632  0.27777299  0.10442729
   0.11110795  0.61111889  0.10442662
   0.11111805  0.94444283  0.10443164
   0.55555061  0.38888877  0.17326865
   0.55556046  0.72222713  0.17327058
   0.55554254  0.05557262  0.17327031
   0.88889369  0.38888311  0.17327069
   0.88890595  0.72220920  0.17327031
   0.88889293  0.05555959  0.17327457
   0.22221909  0.38888576  0.17326757
   0.22222211  0.72221728  0.17326865
   0.22221645  0.05556036  0.17327069
   0.66666449  0.50000255  0.24250484
   0.66666453  0.83333119  0.24250531
   0.66667113  0.16665386  0.24250124
  -0.00000788  0.50000416  0.24250417
  -0.00001281  0.83333780  0.24250124
   0.00000114  0.16666781  0.24250444
   0.33333682  0.50000349  0.24250010
   0.33333589  0.83333115  0.24250484
   0.33333749  0.16665878  0.24250417
   0.77777053  0.61111760  0.31172246
   0.77777940  0.94444606  0.31172498
   0.77778447  0.27777591  0.31172830
   0.11110651  0.61111344  0.31172782
   0.11110924  0.94445114  0.31172830
   0.11110643  0.27777309  0.31172590
   0.44444638  0.61111305  0.31172580
   0.44445094  0.94443719  0.31172246
   0.44444678  0.27777318  0.31172782
   0.88889773  0.72222000  0.38096511
   0.88888947  0.05555614  0.38096905
   0.88888642  0.38888860  0.38096097
   0.22221085  0.72222425  0.38095767
   0.22222193  0.05555309  0.38096097
   0.22222086  0.38888753  0.38096475
   0.55557768  0.72224435  0.38093601
   0.55555334  0.05556439  0.38096511
   0.55555758  0.38887752  0.38095767
   0.00001535  0.83332791  0.45018432
   0.00000094  0.16666761  0.45018963
  -0.00000597  0.50000640  0.45018804
   0.33333224  0.83332033  0.45019981
   0.33333973  0.16666070  0.45018804
   0.33329998  0.49996665  0.45009567
   0.66666837  0.83333504  0.45018689
   0.66666124  0.16668202  0.45018432
   0.66665366  0.49999891  0.45019981
   0.11111518  0.94444428  0.51902988
   0.11110980  0.27777647  0.51904358
   0.11103615  0.61115154  0.51900267
   0.44443927  0.94444030  0.51903172
   0.44448488  0.27770281  0.51900267
   0.44401675  0.61068342  0.51997022
   0.77777935  0.94444601  0.51903281
   0.77777761  0.27778185  0.51902988
   0.77777363  0.61110593  0.51903172
   0.38888889  0.55555556  0.56753985
Direct configuration=     3
   0.44447221  0.44438892  0.10464923
   0.44447376  0.77776038  0.10465229
   0.44446003  0.11115975  0.10465390
   0.77777169  0.44442440  0.10467117
   0.77778099  0.77777136  0.10468465
   0.77771355  0.11115975  0.10465390
   0.11113725  0.44442440  0.10467117
   0.11109919  0.77776038  0.10465229
   0.11109306  0.11114721  0.10465479
   0.55553693  0.55557462  0.17349907
   0.55550651  0.88887365  0.17350531
   0.55557404  0.22218525  0.17350635
   0.88890410  0.55552514  0.17352135
   0.88895317  0.88887365  0.17350531
   0.88890699  0.22222588  0.17350676
   0.22222178  0.55557462  0.17349907
   0.22221043  0.88891248  0.17349499
   0.22220046  0.22222588  0.17350676
   0.66668350  0.66669809  0.24250776
   0.66665860  0.00001613  0.24252311
   0.66665845  0.33333193  0.24252133
  -0.00004826  0.66669809  0.24250776
  -0.00002969  0.00001403  0.24251879
   0.00000431  0.33332472  0.24251981
   0.33334647  0.66664040  0.24250348
   0.33334900  0.00001403  0.24251879
   0.33334295  0.33333193  0.24252133
   0.77778387  0.77776559  0.31170927
   0.77775046  0.11111398  0.31169979
   0.77780298  0.44442628  0.31172177
   0.11109378  0.77778632  0.31171997
   0.11109346  0.11114642  0.31171274
   0.11110407  0.44442628  0.31172177
   0.44445323  0.77778632  0.31171997
   0.44446890  0.11111398  0.31169979
   0.44445175  0.44442983  0.31171238
   0.88892218  0.88886395  0.38097255
   0.88887959  0.22223261  0.38095693
   0.88889109  0.55555115  0.38098738
   0.22221710  0.88889913  0.38097118
   0.22222113  0.22223261  0.38095693
   0.22217940  0.55559075  0.38094451
   0.55554720  0.88886395  0.38097255
   0.55563891  0.22205552  0.38086290
   0.55556318  0.55559075  0.38094451
  -0.00002247 -0.00000162  0.44994483
   0.00000355  0.33332623  0.44995081
   0.00005784  0.66662927  0.44993082
   0.33335742 -0.00000162  0.44994483
   0.33332921  0.33338645  0.44998919
   0.33320770  0.66691794  0.44959687
   0.66667308 -0.00001284  0.44994050
   0.66661767  0.33338645  0.44998919
   0.66664623  0.66662927  0.44993082
   0.11110617  0.11112100  0.51884252
   0.11112644  0.44442974  0.51879090
   0.11082873  0.77790785  0.51868840
   0.44442494  0.11114623  0.51879783
   0.44283333  0.44766667  0.52233315
   0.44459676  0.77790785  0.51868840
   0.77776217  0.11114623  0.51879783
   0.77777714  0.44442974  0.51879090
   0.77778369  0.77776595  0.51880194
   0.27775773  0.27780391  0.10467117
   0.27772225  0.61113887  0.10464923
   0.27775773  0.94443835  0.10467117
   0.61109372  0.27776586  0.10465229
   0.61109372  0.61114042  0.10465229
   0.61110469  0.94444765  0.10468465
   0.94448054  0.27775973  0.10465479
   0.94449308  0.61112670  0.10465390
   0.94449308  0.94438022  0.10465390
   0.38890796  0.38888845  0.17349907
   0.38890796  0.72220359  0.17349907
   0.38885847  0.05557076  0.17352135
   0.72224581  0.38887710  0.17349499
   0.72220699  0.72217318  0.17350531
   0.72220699  0.05561984  0.17350531
   0.05555921  0.38886713  0.17350676
   0.05551859  0.72224071  0.17350635
   0.05555921  0.05557366  0.17350676
   0.49997373  0.50001313  0.24250348
   0.50003143  0.83335016  0.24250776
   0.50003143  0.16661841  0.24250776
   0.83334736  0.50001567  0.24251879
   0.83334947  0.83332527  0.24252311
   0.83334736  0.16663697  0.24251879
   0.16666526  0.50000962  0.24252133
   0.16666526  0.83332512  0.24252133
   0.16665805  0.16667097  0.24251981
   0.61111965  0.61111990  0.31171997
   0.61109892  0.94445054  0.31170927
   0.61111965  0.27776045  0.31171997
   0.94444731  0.61113556  0.31169979
   0.94444731  0.94441713  0.31169979
   0.94447975  0.27776013  0.31171274
   0.27776316  0.61111842  0.31171238
   0.27775962  0.94446965  0.31172177
   0.27775962  0.27777073  0.31172177
   0.72219729  0.72221387  0.38097255
   0.72219729  0.05558885  0.38097255
   0.72223246  0.38888377  0.38097118
   0.05538885  0.72230557  0.38086290
   0.05556595  0.05554625  0.38095693
   0.05556595  0.38888780  0.38095693
   0.38892409  0.72222985  0.38094451
   0.38888449  0.05555776  0.38098738
   0.38892409  0.38884606  0.38094451
   0.83332050  0.83333975  0.44994050
   0.83333171  0.16664419  0.44994483
   0.83333171  0.50002409  0.44994483
   0.16671978  0.83328434  0.44998919
   0.16665956  0.16667022  0.44995081
   0.16671978  0.49999588  0.44998919
   0.49996260  0.83331289  0.44993082
   0.49996260  0.16672451  0.44993082
   0.50025127  0.49987437  0.44959687
   0.94447956  0.94442883  0.51879783
   0.94445433  0.27777284  0.51884252
   0.94447956  0.61109160  0.51879783
   0.27776308  0.94444381  0.51879090
   0.27776308  0.27779311  0.51879090
   0.28100000  0.60950000  0.52233315
   0.61109928  0.94445036  0.51880194
   0.61124118  0.27749539  0.51868840
   0.61124118  0.61126342  0.51868840
   0.27776801  0.44443468  0.10467915
   0.27776801  0.77779731  0.10467915
   0.27771945  0.11114028  0.10465958
   0.61113064  0.44443468  0.10467915
   0.61109451  0.77776118  0.10466123
   0.61109451  0.11114431  0.10466123
   0.94447361  0.44438612  0.10465958
   0.94447765  0.77776118  0.10466123
   0.94447361  0.11114028  0.10465958
   0.38888889  0.55555556  0.17353197
   0.38889541  0.88889746  0.17350626
   0.38889541  0.22220713  0.17350626
   0.72223079  0.55556208  0.17350626
   0.72222222  0.88888889  0.17355147
   0.72223079  0.22220713  0.17350626
   0.05554046  0.55556208  0.17350626
   0.05554046  0.88889746  0.17350626
   0.05555556  0.22222222  0.17350694
   0.49997977  0.66664644  0.24252723
   0.49999424  0.00000288  0.24250928
   0.49997977  0.33337378  0.24252723
   0.83333621  0.66666091  0.24250928
   0.83333621  0.00000288  0.24250928
   0.83335390  0.33332305  0.24252318
   0.16670712  0.66664644  0.24252723
   0.16665638  0.00002057  0.24252318
   0.16665638  0.33332305  0.24252318
   0.61115144  0.77781811  0.31165267
   0.61115144  0.11103045  0.31165267
   0.61110735  0.44444633  0.31172936
   0.94436378  0.77781811  0.31165267
   0.94445357  0.11112024  0.31169576
   0.94445357  0.44442620  0.31169576
   0.27777966  0.77777401  0.31172936
   0.27775953  0.11112024  0.31169576
   0.27777966  0.44444633  0.31172936
   0.72222222  0.88888889  0.38094836
   0.72221696  0.22225157  0.38098248
   0.72221696  0.55553147  0.38098248
   0.05558490  0.88888363  0.38098248
   0.05555556  0.22222222  0.38094043
   0.05558490  0.55553147  0.38098248
   0.38886481  0.88888363  0.38098248
   0.38886481  0.22225157  0.38098248
   0.38888889  0.55555556  0.38097900
   0.83331576 -0.00001757  0.44993018
   0.83332839  0.33333580  0.44993359
   0.83331576  0.66670181  0.44993018
   0.16666914 -0.00000494  0.44993359
   0.16666914  0.33333580  0.44993359
   0.16740845  0.66629578  0.45040579
   0.50003515 -0.00001757  0.44993018
   0.49962911  0.33407512  0.45040579
   0.49962911  0.66629578  0.45040579
   0.94446104  0.11112771  0.51878003
   0.94446104  0.44441125  0.51878003
   0.94441130  0.77779435  0.51880929
   0.27774458  0.11112771  0.51878003
   0.27704555  0.44371221  0.51863716
   0.27704555  0.77924224  0.51863716
   0.61112768  0.11107796  0.51880929
   0.61257557  0.44371221  0.51863716
   0.61112768  0.77779435  0.51880929
   0.44447376  0.27776586  0.10465229
   0.44447221  0.61113887  0.10464923
   0.44446003  0.94438022  0.10465390
   0.77777169  0.27780391  0.10467117
   0.77771355  0.61112670  0.10465390
   0.77778099  0.94444765  0.10468465
   0.11109306  0.27775973  0.10465479
   0.11109919  0.61114042  0.10465229
   0.11113725  0.94443835  0.10467117
   0.55553693  0.38888845  0.17349907
   0.55557404  0.72224071  0.17350635
   0.55550651  0.05561984  0.17350531
   0.88890699  0.38886713  0.17350676
   0.88895317  0.72217318  0.17350531
   0.88890410  0.05557076  0.17352135
   0.22221043  0.38887710  0.17349499
   0.22222178  0.72220359  0.17349907
   0.22220046  0.05557366  0.17350676
   0.66665845  0.50000962  0.24252133
   0.66665860  0.83332527  0.24252311
   0.66668350  0.16661841  0.24250776
  -0.00002969  0.50001567  0.24251879
  -0.00004826  0.83335016  0.24250776
   0.00000431  0.16667097  0.24251981
   0.33334647  0.50001313  0.24250348
   0.33334295  0.83332512  0.24252133
   0.33334900  0.16663697  0.24251879
   0.77775046  0.61113556  0.31169979
   0.77778387  0.94445054  0.31170927
   0.77780298  0.27777073  0.31172177
   0.11109378  0.61111990  0.31171997
   0.11110407  0.94446965  0.31172177
   0.11109346  0.27776013  0.31171274
   0.44445175  0.61111842  0.31171238
   0.44446890  0.94441713  0.31169979
   0.44445323  0.27776045  0.31171997
   0.88892218  0.72221387  0.38097255
   0.88889109  0.05555776  0.38098738
   0.88887959  0.38888780  0.38095693
   0.22217940  0.72222985  0.38094451
   0.22222113  0.05554625  0.38095693
   0.22221710  0.38888377  0.38097118
   0.55563891  0.72230557  0.38086290
   0.55554720  0.05558885  0.38097255
   0.55556318  0.38884606  0.38094451
   0.00005784  0.83331289  0.44993082
   0.00000355  0.16667022  0.44995081
  -0.00002247  0.50002409  0.44994483
   0.33332921  0.83328434  0.44998919
   0.33335742  0.16664419  0.44994483
   0.33320770  0.49987437  0.44959687
   0.66667308  0.83333975  0.44994050
   0.66664623  0.16672451  0.44993082
   0.66661767  0.49999588  0.44998919
   0.11112644  0.94444381  0.51879090
   0.11110617  0.27777284  0.51884252
   0.11082873  0.61126342  0.51868840
   0.44442494  0.94442883  0.51879783
   0.44459676  0.27749539  0.51868840
   0.44283333  0.60950000  0.52233315
   0.77778369  0.94445036  0.51880194
   0.77777714  0.27779311  0.51879090
   0.77776217  0.61109160  0.51879783
   0.38888889  0.55555556  0.56073266
Direct configuration=     4
   0.44447164  0.44439005  0.10481294
   0.44447771  0.77776009  0.10481987
   0.44445887  0.11115924  0.10481526
   0.77777598  0.44442864  0.10483570
   0.77778751  0.77775830  0.10485809
   0.77771523  0.11115924  0.10481526
   0.11112871  0.44442864  0.10483570
   0.11109553  0.77776009  0.10481987
   0.11109175  0.11114984  0.10482043
   0.55554783  0.55557137  0.17361343
   0.55551225  0.88886982  0.17361917
   0.55557117  0.22219100  0.17362825
   0.88890810  0.55551713  0.17363033
   0.88895127  0.88886982  0.17361917
   0.88890077  0.22223608  0.17362258
   0.22221413  0.55557137  0.17361343
   0.22221104  0.88891125  0.17361684
   0.22219649  0.22223608  0.17362258
   0.66668278  0.66670610  0.24255307
   0.66665628  0.00002077  0.24256308
   0.66665219  0.33333486  0.24256831
  -0.00005554  0.66670610  0.24255307