 running on    1 total cores
 distrk:  each k-point on    1 cores,    1 groups
 distr:  one band on    1 cores,    1 groups
 OpenACC runtime initialized ...    1 GPUs detected
 vasp.6.2.1 16May21 (build May 12 2022 08:28:04) complex                         
 POSCAR found type information on POSCAR AlO 
 POSCAR found :  2 types and     334 ions
 scaLAPACK will be used selectively (only on CPU)
 LDA part: xc-table for Pade appr. of Perdew
 POSCAR found type information on POSCAR AlO 
 POSCAR found :  2 types and     334 ions
 POSCAR, INCAR and KPOINTS ok, starting setup
 FFT: planning ...
 WAVECAR not read
 entering main loop
       N       E                     dE             d eps       ncg     rms          rms(c)
DAV:   1     0.151840742901E+05    0.15184E+05   -0.68152E+05  4176   0.113E+03
DAV:   2     0.119331317553E+02   -0.15172E+05   -0.14569E+05  5536   0.386E+02
DAV:   3    -0.225161030920E+04   -0.22635E+04   -0.22276E+04  5456   0.150E+02
DAV:   4    -0.234534754789E+04   -0.93737E+02   -0.92532E+02  5416   0.339E+01
DAV:   5    -0.234849289991E+04   -0.31454E+01   -0.31155E+01  5920   0.689E+00    0.212E+02
DAV:   6    -0.208783178334E+04    0.26066E+03   -0.10811E+03  5840   0.532E+01    0.161E+02
DAV:   7    -0.218218476485E+04   -0.94353E+02   -0.21981E+02  6016   0.485E+01    0.988E+01
DAV:   8    -0.281436784387E+04   -0.63218E+03   -0.16089E+02  6696   0.743E+01    0.209E+02
DAV:   9    -0.214290870044E+04    0.67146E+03   -0.10583E+02  5992   0.466E+01    0.757E+01
DAV:  10    -0.215126438097E+04   -0.83557E+01   -0.14895E+02  5752   0.331E+01    0.829E+01
DAV:  11    -0.209860875433E+04    0.52656E+02   -0.72388E+01  5680   0.275E+01    0.440E+01
DAV:  12    -0.209075601052E+04    0.78527E+01   -0.56843E+01  5280   0.115E+01    0.332E+01
DAV:  13    -0.208416151350E+04    0.65945E+01   -0.73074E+00  4920   0.627E+00    0.314E+01
DAV:  14    -0.207997541264E+04    0.41861E+01   -0.15217E+01  5392   0.465E+00    0.254E+01
DAV:  15    -0.207734727191E+04    0.26281E+01   -0.25573E+00  4928   0.212E+00    0.234E+01
DAV:  16    -0.207545457606E+04    0.18927E+01   -0.68886E+00  5440   0.295E+00    0.228E+01
DAV:  17    -0.207254489498E+04    0.29097E+01   -0.45245E+00  6096   0.289E+00    0.198E+01
DAV:  18    -0.206943938963E+04    0.31055E+01   -0.18218E+00  5664   0.270E+00    0.179E+01
DAV:  19    -0.206766024038E+04    0.17791E+01   -0.18347E+00  6184   0.289E+00    0.171E+01
DAV:  20    -0.206591603182E+04    0.17442E+01   -0.87122E-01  5216   0.169E+00    0.150E+01
DAV:  21    -0.206478693216E+04    0.11291E+01   -0.26981E-01  6112   0.165E+00    0.139E+01
DAV:  22    -0.206443428244E+04    0.35265E+00   -0.16655E-01  4680   0.597E-01    0.139E+01
DAV:  23    -0.206393913415E+04    0.49515E+00   -0.33242E-02  5464   0.494E-01    0.132E+01
DAV:  24    -0.206331252123E+04    0.62661E+00   -0.31368E-02  6600   0.728E-01    0.131E+01
DAV:  25    -0.206077447136E+04    0.25380E+01   -0.31946E-01  6272   0.289E+00    0.110E+01
DAV:  26    -0.205879385959E+04    0.19806E+01   -0.83022E-01  5912   0.303E+00    0.766E+00
DAV:  27    -0.205893842581E+04   -0.14457E+00   -0.54843E-01  4320   0.716E-01    0.745E+00
DAV:  28    -0.205887758826E+04    0.60838E-01   -0.14253E-02  4920   0.212E-01    0.743E+00
DAV:  29    -0.205799227490E+04    0.88531E+00   -0.13782E-01  6440   0.202E+00    0.623E+00
DAV:  30    -0.205728417300E+04    0.70810E+00   -0.28849E-01  5776   0.235E+00    0.489E+00
DAV:  31    -0.205770102029E+04   -0.41685E+00   -0.18705E+00  4776   0.142E+00    0.920E+00
DAV:  32    -0.205790248581E+04   -0.20147E+00   -0.19648E-01  4576   0.525E-01    0.111E+01
DAV:  33    -0.205781280527E+04    0.89681E-01   -0.11021E-02  5352   0.123E-01    0.111E+01
DAV:  34    -0.205777940369E+04    0.33402E-01   -0.12187E-02  5432   0.184E-01    0.113E+01
DAV:  35    -0.205765725240E+04    0.12215E+00   -0.91556E-03  5344   0.149E-01    0.104E+01
DAV:  36    -0.205748039533E+04    0.17686E+00   -0.11675E-02  6656   0.201E-01    0.911E+00
DAV:  37    -0.205696705316E+04    0.51334E+00   -0.39938E-01  6096   0.636E-01    0.556E+00
DAV:  38    -0.205684905333E+04    0.11800E+00   -0.21860E+00  6168   0.113E+00    0.409E+00
DAV:  39    -0.205690553720E+04   -0.56484E-01   -0.53699E-02  4360   0.441E-01    0.395E+00
DAV:  40    -0.205683237998E+04    0.73157E-01   -0.38564E-02  4704   0.369E-01    0.407E+00
DAV:  41    -0.205682454108E+04    0.78389E-02   -0.40610E-03  4696   0.965E-02    0.426E+00
DAV:  42    -0.205676773511E+04    0.56806E-01   -0.21359E-02  5832   0.272E-01    0.350E+00
DAV:  43    -0.205672431320E+04    0.43422E-01   -0.16224E-01  6432   0.521E-01    0.325E+00
DAV:  44    -0.205668071915E+04    0.43594E-01   -0.21229E-01  4512   0.561E-01    0.211E+00
DAV:  45    -0.205667446555E+04    0.62536E-02   -0.14907E-02  5016   0.211E-01    0.201E+00
DAV:  46    -0.205666349958E+04    0.10966E-01   -0.59186E-03  5128   0.111E-01    0.174E+00
DAV:  47    -0.205667099269E+04   -0.74931E-02   -0.25465E-03  5640   0.195E-01    0.184E+00
DAV:  48    -0.205670313261E+04   -0.32140E-01   -0.30392E-02  6288   0.670E-01    0.178E+00
DAV:  49    -0.205669887348E+04    0.42591E-02   -0.24513E-02  4384   0.251E-01    0.157E+00
DAV:  50    -0.205669623660E+04    0.26369E-02   -0.10058E-02  5328   0.141E-01    0.156E+00
DAV:  51    -0.205671434680E+04   -0.18110E-01   -0.77902E-03  5024   0.225E-01    0.167E+00
DAV:  52    -0.205671244517E+04    0.19016E-02   -0.40222E-03  4576   0.927E-02    0.143E+00
DAV:  53    -0.205671196279E+04    0.48238E-03   -0.21469E-03  4968   0.820E-02    0.141E+00
DAV:  54    -0.205671076827E+04    0.11945E-02   -0.18030E-03  5296   0.608E-02    0.130E+00
DAV:  55    -0.205670841375E+04    0.23545E-02   -0.61445E-04  5600   0.564E-02    0.114E+00
DAV:  56    -0.205670471742E+04    0.36963E-02   -0.11673E-03  6160   0.978E-02    0.879E-01
DAV:  57    -0.205670137439E+04    0.33430E-02   -0.10303E-03  5672   0.842E-02    0.768E-01
DAV:  58    -0.205669787137E+04    0.35030E-02   -0.16921E-03  5376   0.953E-02    0.647E-01
DAV:  59    -0.205669611598E+04    0.17554E-02   -0.69183E-04  5432   0.492E-02    0.604E-01
DAV:  60    -0.205669031930E+04    0.57967E-02   -0.25888E-04  5960   0.110E-01
 -----------------------------------------------------------------------------
|                                                                             |
|           W    W    AA    RRRRR   N    N  II  N    N   GGGG   !!!           |
|           W    W   A  A   R    R  NN   N  II  NN   N  G    G  !!!           |
|           W    W  A    A  R    R  N N  N  II  N N  N  G       !!!           |
|           W WW W  AAAAAA  RRRRR   N  N N  II  N  N N  G  GGG   !            |
|           WW  WW  A    A  R   R   N   NN  II  N   NN  G    G                |
|           W    W  A    A  R    R  N    N  II  N    N   GGGG   !!!           |
|                                                                             |
|     The electronic self-consistency was not achieved in the given           |
|     number of steps (NELM). The forces and other quantities evaluated       |
|     might not be reliable so examine the results carefully. If you find     |
|     spurious results, we suggest increasing NELM, if you were close to      |
|     convergence or switching to a different ALGO or adjusting the           |
|     density mixing parameters otherwise.                                    |
|                                                                             |
 -----------------------------------------------------------------------------

   1 F= -.21163965E+04 E0= -.21162793E+04  d E =-.211640E+04
 curvature:   0.00 expect dE= 0.000E+00 dE for cont linesearch  0.000E+00
 trial: gam= 0.00000 g(F)=  0.820E+02 g(S)=  0.000E+00 ort = 0.000E+00 (trialstep = 0.100E+01)
 search vector abs. value=  0.820E+02
 bond charge predicted
       N       E                     dE             d eps       ncg     rms          rms(c)
DAV:   1    -0.206986109733E+04   -0.13165E+02   -0.47059E+03  4136   0.932E+01    0.499E+01
DAV:   2    -0.215808155435E+04   -0.88220E+02   -0.36994E+02  5592   0.328E+01    0.740E+01
DAV:   3    -0.211106846477E+04    0.47013E+02   -0.11537E+02  5608   0.276E+01    0.411E+01
DAV:   4    -0.209785593820E+04    0.13213E+02   -0.46203E+01  5272   0.147E+01    0.330E+01
DAV:   5    -0.209263771004E+04    0.52182E+01   -0.19629E+01  5360   0.108E+01    0.307E+01
DAV:   6    -0.209080125641E+04    0.18365E+01   -0.23116E+01  5704   0.663E+00    0.201E+01
DAV:   7    -0.209008847944E+04    0.71278E+00   -0.19055E+00  5480   0.329E+00    0.167E+01
DAV:   8    -0.209170715814E+04   -0.16187E+01   -0.69005E+00  6112   0.606E+00    0.183E+01
DAV:   9    -0.209405054019E+04   -0.23434E+01   -0.79154E+00  6712   0.791E+00    0.236E+01
DAV:  10    -0.209208141523E+04    0.19691E+01   -0.73516E+00  5416   0.444E+00    0.188E+01
DAV:  11    -0.209084358043E+04    0.12378E+01   -0.30781E+00  5328   0.295E+00    0.124E+01
DAV:  12    -0.209062985313E+04    0.21373E+00   -0.18924E+00  5760   0.207E+00    0.102E+01
DAV:  13    -0.209046788282E+04    0.16197E+00   -0.76409E-01  6112   0.175E+00    0.884E+00
DAV:  14    -0.209027295850E+04    0.19492E+00   -0.53179E-01  5648   0.142E+00    0.689E+00
DAV:  15    -0.209014689962E+04    0.12606E+00   -0.38392E-01  6072   0.136E+00    0.532E+00
DAV:  16    -0.209001912653E+04    0.12777E+00   -0.23771E-01  6688   0.159E+00    0.344E+00
DAV:  17    -0.208993821089E+04    0.80916E-01   -0.15071E-01  6528   0.164E+00    0.218E+00
DAV:  18    -0.208993376861E+04    0.44423E-02   -0.22732E-01  5064   0.929E-01    0.185E+00
DAV:  19    -0.208992662379E+04    0.71448E-02   -0.64621E-02  4856   0.494E-01    0.131E+00
DAV:  20    -0.208993692128E+04   -0.10297E-01   -0.27752E-02  4488   0.480E-01    0.132E+00
DAV:  21    -0.208993468993E+04    0.22313E-02   -0.48600E-03  4376   0.986E-02    0.129E+00
DAV:  22    -0.208994329419E+04   -0.86043E-02   -0.73114E-02  5984   0.623E-01    0.154E+00
DAV:  23    -0.208992786306E+04    0.15431E-01   -0.51370E-02  4896   0.278E-01    0.579E-01
DAV:  24    -0.208993052961E+04   -0.26666E-02   -0.86065E-03  5176   0.144E-01    0.476E-01
DAV:  25    -0.208993116777E+04   -0.63816E-03   -0.20380E-03  4760   0.753E-02    0.317E-01
DAV:  26    -0.208993051358E+04    0.65419E-03   -0.18102E-03  4856   0.663E-02    0.235E-01
DAV:  27    -0.208993069450E+04   -0.18093E-03   -0.71737E-04  5192   0.437E-02    0.151E-01
DAV:  28    -0.208993135544E+04   -0.66094E-03   -0.38145E-03  5888   0.141E-01    0.165E-01
DAV:  29    -0.208993159615E+04   -0.24071E-03   -0.37703E-04  5000   0.289E-02    0.156E-01
DAV:  30    -0.208993122362E+04    0.37253E-03   -0.13758E-04  5264   0.464E-02    0.100E-01
DAV:  31    -0.208993117872E+04    0.44905E-04   -0.12465E-04  5088   0.329E-02    0.503E-02
DAV:  32    -0.208993136558E+04   -0.18686E-03   -0.11374E-04  4416   0.176E-02    0.241E-02
DAV:  33    -0.208993147378E+04   -0.10821E-03   -0.26282E-05  3208   0.819E-03    0.198E-02
DAV:  34    -0.208993151308E+04   -0.39292E-04   -0.49331E-06  2552   0.457E-03    0.171E-02
DAV:  35    -0.208993159357E+04   -0.80492E-04   -0.57897E-06  2424   0.637E-03    0.139E-02
DAV:  36    -0.208993174174E+04   -0.14817E-03   -0.75179E-06  2544   0.457E-03    0.111E-02
DAV:  37    -0.208993182259E+04   -0.80848E-04   -0.40400E-06  2488   0.360E-03    0.676E-03
DAV:  38    -0.208993186216E+04   -0.39570E-04   -0.21965E-06  2456   0.254E-03    0.582E-03
DAV:  39    -0.208993191169E+04   -0.49537E-04   -0.26117E-06  2440   0.232E-03    0.503E-03
DAV:  40    -0.208993194855E+04   -0.36854E-04   -0.29544E-06  2440   0.296E-03    0.655E-03
DAV:  41    -0.208993195363E+04   -0.50885E-05   -0.26815E-06  2576   0.388E-03    0.517E-03
DAV:  42    -0.208993195567E+04   -0.20346E-05   -0.81017E-07  2440   0.144E-03
   2 F= -.21497425E+04 E0= -.21496491E+04  d E =-.333459E+02
 trial-energy change:  -33.345911  1 .order  -47.117772  -81.967021  -12.268523
 step:   1.1760(harm=  1.1760)  dis= 0.39244  next Energy= -2164.594088 (dE=-0.482E+02)
 bond charge predicted
       N       E                     dE             d eps       ncg     rms          rms(c)
DAV:   1    -0.209166276203E+04   -0.17308E+01   -0.14940E+02  4048   0.159E+01    0.742E+00
DAV:   2    -0.209715817056E+04   -0.54954E+01   -0.13326E+01  5616   0.605E+00    0.265E+01
DAV:   3    -0.209145408051E+04    0.57041E+01   -0.70262E+00  5448   0.522E+00    0.507E+00
DAV:   4    -0.209230559551E+04   -0.85151E+00   -0.19485E+00  5608   0.267E+00    0.775E+00
DAV:   5    -0.209195934643E+04    0.34625E+00   -0.13215E+00  5736   0.257E+00    0.562E+00
DAV:   6    -0.209186391890E+04    0.95428E-01   -0.34213E+00  5496   0.245E+00    0.319E+00
DAV:   7    -0.209190086823E+04   -0.36949E-01   -0.52459E-01  5352   0.952E-01    0.360E+00
DAV:   8    -0.209182810150E+04    0.72767E-01   -0.28557E-01  5608   0.838E-01    0.211E+00
DAV:   9    -0.209181974522E+04    0.83563E-02   -0.80415E-02  5712   0.626E-01    0.150E+00
DAV:  10    -0.209181182930E+04    0.79159E-02   -0.37293E-02  5328   0.379E-01    0.107E+00
DAV:  11    -0.209180211563E+04    0.97137E-02   -0.11832E-02  5520   0.291E-01    0.639E-01
DAV:  12    -0.209179243909E+04    0.96765E-02   -0.63004E-03  6704   0.382E-01    0.469E-01
DAV:  13    -0.209179143901E+04    0.10001E-02   -0.10762E-02  5696   0.255E-01    0.435E-01
DAV:  14    -0.209179103566E+04    0.40335E-03   -0.95762E-03  4864   0.195E-01    0.273E-01
DAV:  15    -0.209179071454E+04    0.32112E-03   -0.12687E-03  4552   0.657E-02    0.177E-01
DAV:  16    -0.209179106436E+04   -0.34981E-03   -0.83485E-04  5392   0.649E-02    0.224E-01
DAV:  17    -0.209179075920E+04    0.30516E-03   -0.70900E-04  5376   0.506E-02    0.117E-01
DAV:  18    -0.209179092169E+04   -0.16249E-03   -0.88768E-04  5128   0.796E-02    0.119E-01
DAV:  19    -0.209179075600E+04    0.16569E-03   -0.53730E-04  5040   0.551E-02    0.602E-02
DAV:  20    -0.209179079944E+04   -0.43440E-04   -0.97260E-05  4640   0.184E-02    0.379E-02
DAV:  21    -0.209179082653E+04   -0.27086E-04   -0.34034E-05  3904   0.109E-02    0.240E-02
DAV:  22    -0.209179085102E+04   -0.24491E-04   -0.12676E-05  2456   0.762E-03    0.185E-02
DAV:  23    -0.209179087049E+04   -0.19469E-04   -0.66795E-06  2472   0.628E-03    0.137E-02
DAV:  24    -0.209179089200E+04   -0.21507E-04   -0.40895E-06  2440   0.436E-03    0.819E-03
DAV:  25    -0.209179090583E+04   -0.13827E-04   -0.22916E-06  2504   0.282E-03    0.591E-03
DAV:  26    -0.209179091731E+04   -0.11485E-04   -0.12319E-06  2448   0.196E-03    0.555E-03
DAV:  27    -0.209179093394E+04   -0.16630E-04   -0.12858E-06  2424   0.270E-03    0.656E-03
DAV:  28    -0.209179094894E+04   -0.14999E-04   -0.12354E-06  2448   0.188E-03    0.538E-03
DAV:  29    -0.209179095414E+04   -0.52043E-05   -0.71092E-07  2520   0.152E-03    0.474E-03
DAV:  30    -0.209179095883E+04   -0.46822E-05   -0.39377E-07  2432   0.958E-04
   3 F= -.21516218E+04 E0= -.21515289E+04  d E =-.352252E+02
 curvature:  -0.59 expect dE=-0.492E+01 dE for cont linesearch -0.612E+00
 ZBRENT: increasing intervall
 opt :   1.5281  next Energy= -2153.804711 (dE=-0.374E+02)
 bond charge predicted
       N       E                     dE             d eps       ncg     rms          rms(c)
DAV:   1    -0.209301398290E+04   -0.12230E+01   -0.59095E+02  4080   0.320E+01    0.125E+01
DAV:   2    -0.210142425390E+04   -0.84103E+01   -0.29797E+01  5112   0.911E+00    0.327E+01
DAV:   3    -0.209362429148E+04    0.78000E+01   -0.10562E+01  5352   0.718E+00    0.862E+00
DAV:   4    -0.209567961792E+04   -0.20553E+01   -0.47207E+00  5568   0.422E+00    0.133E+01
DAV:   5    -0.209417712917E+04    0.15025E+01   -0.25031E+00  5568   0.396E+00    0.615E+00
DAV:   6    -0.209413414419E+04    0.42985E-01   -0.85472E-01  5400   0.220E+00    0.443E+00
DAV:   7    -0.209415921605E+04   -0.25072E-01   -0.84679E-01  5688   0.154E+00    0.481E+00
DAV:   8    -0.209403768618E+04    0.12153E+00   -0.49145E-01  5624   0.117E+00    0.297E+00
DAV:   9    -0.209403056750E+04    0.71187E-02   -0.22085E-01  5632   0.733E-01    0.202E+00
DAV:  10    -0.209402366939E+04    0.68981E-02   -0.78735E-02  5472   0.507E-01    0.114E+00
DAV:  11    -0.209401887798E+04    0.47914E-02   -0.19239E-02  5400   0.352E-01    0.614E-01
DAV:  12    -0.209402058580E+04   -0.17078E-02   -0.87721E-03  5064   0.213E-01    0.413E-01
DAV:  13    -0.209402059857E+04   -0.12769E-04   -0.38152E-03  5192   0.140E-01    0.264E-01
DAV:  14    -0.209402076846E+04   -0.16990E-03   -0.12699E-03  5328   0.871E-02    0.174E-01
DAV:  15    -0.209402104023E+04   -0.27176E-03   -0.17842E-03  5536   0.875E-02    0.166E-01
DAV:  16    -0.209402108524E+04   -0.45011E-04   -0.16266E-03  5392   0.811E-02    0.113E-01
DAV:  17    -0.209402117419E+04   -0.88947E-04   -0.51907E-04  5128   0.574E-02    0.662E-02
DAV:  18    -0.209402132100E+04   -0.14681E-03   -0.20775E-04  4768   0.330E-02    0.468E-02
DAV:  19    -0.209402140944E+04   -0.88446E-04   -0.77987E-05  4424   0.192E-02    0.275E-02
DAV:  20    -0.209402149528E+04   -0.85839E-04   -0.18941E-05  2576   0.106E-02    0.185E-02
DAV:  21    -0.209402160690E+04   -0.11162E-03   -0.13335E-05  2512   0.748E-03    0.164E-02
DAV:  22    -0.209402170216E+04   -0.95262E-04   -0.11391E-05  2464   0.839E-03    0.146E-02
DAV:  23    -0.209402180246E+04   -0.10029E-03   -0.10131E-05  2528   0.708E-03    0.112E-02
DAV:  24    -0.209402187753E+04   -0.75077E-04   -0.50795E-06  2472   0.434E-03    0.821E-03
DAV:  25    -0.209402195819E+04   -0.80654E-04   -0.46393E-06  2472   0.326E-03    0.763E-03
DAV:  26    -0.209402204419E+04   -0.85998E-04   -0.44222E-06  2448   0.314E-03    0.697E-03
DAV:  27    -0.209402210846E+04   -0.64269E-04   -0.42322E-06  2472   0.298E-03    0.676E-03
DAV:  28    -0.209402213382E+04   -0.25367E-04   -0.26080E-06  2472   0.252E-03    0.620E-03
DAV:  29    -0.209402214649E+04   -0.12664E-04   -0.15513E-06  2424   0.168E-03    0.588E-03
DAV:  30    -0.209402215313E+04   -0.66429E-05   -0.91432E-07  2488   0.134E-03    0.570E-03
DAV:  31    -0.209402215640E+04   -0.32703E-05   -0.51554E-07  2440   0.895E-04
   4 F= -.21539306E+04 E0= -.21538371E+04  d E =-.375341E+02
 curvature:  -2.10 expect dE=-0.204E+02 dE for cont linesearch -0.387E+00
 ZBRENT: increasing intervall
 opt :   2.2322  next Energy= -2152.900637 (dE=-0.365E+02)
 bond charge predicted
       N       E                     dE             d eps       ncg     rms          rms(c)
DAV:   1    -0.208551094394E+04    0.85112E+01   -0.22905E+03  4072   0.652E+01    0.219E+01
DAV:   2    -0.210202978975E+04   -0.16519E+02   -0.10312E+02  5120   0.154E+01    0.356E+01
DAV:   3    -0.209484043077E+04    0.71894E+01   -0.21921E+01  5520   0.129E+01    0.152E+01
DAV:   4    -0.209577834158E+04   -0.93791E+00   -0.62960E+00  5096   0.581E+00    0.176E+01
DAV:   5    -0.209456622288E+04    0.12121E+01   -0.37168E+00  5328   0.555E+00    0.136E+01
DAV:   6    -0.209400509864E+04    0.56112E+00   -0.28368E+00  5664   0.419E+00    0.944E+00
DAV:   7    -0.209422865319E+04   -0.22355E+00   -0.23589E+00  6184   0.423E+00    0.119E+01
DAV:   8    -0.209349878505E+04    0.72987E+00   -0.40128E+00  5280   0.286E+00    0.849E+00
DAV:   9    -0.209323831331E+04    0.26047E+00   -0.14353E+00  5416   0.143E+00    0.371E+00
DAV:  10    -0.209328008472E+04   -0.41771E-01   -0.29272E-01  5504   0.130E+00    0.349E+00
DAV:  11    -0.209324484080E+04    0.35244E-01   -0.20045E-01  5368   0.752E-01    0.179E+00
DAV:  12    -0.209327623999E+04   -0.31399E-01   -0.11887E-01  5448   0.637E-01    0.235E+00
DAV:  13    -0.209325239837E+04    0.23842E-01   -0.80117E-02  5464   0.553E-01    0.120E+00
DAV:  14    -0.209325259884E+04   -0.20048E-03   -0.22154E-02  5208   0.359E-01    0.751E-01
DAV:  15    -0.209325249216E+04    0.10668E-03   -0.15564E-02  5448   0.236E-01    0.479E-01
DAV:  16    -0.209325281351E+04   -0.32135E-03   -0.64599E-03  5184   0.142E-01    0.320E-01
DAV:  17    -0.209325323155E+04   -0.41804E-03   -0.30238E-03  5144   0.960E-02    0.217E-01
DAV:  18    -0.209325403690E+04   -0.80535E-03   -0.19552E-03  5368   0.104E-01    0.211E-01
DAV:  19    -0.209325443514E+04   -0.39824E-03   -0.18028E-03  5320   0.902E-02    0.158E-01
DAV:  20    -0.209325465325E+04   -0.21810E-03   -0.39084E-04  4960   0.415E-02    0.727E-02
DAV:  21    -0.209325495036E+04   -0.29712E-03   -0.12777E-04  4760   0.293E-02    0.488E-02
DAV:  22    -0.209325516626E+04   -0.21589E-03   -0.61080E-05  4456   0.162E-02    0.324E-02
DAV:  23    -0.209325546279E+04   -0.29653E-03   -0.28489E-05  3416   0.111E-02    0.223E-02
DAV:  24    -0.209325588501E+04   -0.42222E-03   -0.35539E-05  3592   0.124E-02    0.179E-02
DAV:  25    -0.209325630972E+04   -0.42472E-03   -0.46425E-05  4024   0.132E-02    0.158E-02
DAV:  26    -0.209325649483E+04   -0.18511E-03   -0.20600E-05  2792   0.101E-02    0.116E-02
DAV:  27    -0.209325670501E+04   -0.21017E-03   -0.19165E-05  3296   0.579E-03    0.114E-02
DAV:  28    -0.209325690309E+04   -0.19808E-03   -0.90281E-06  2800   0.418E-03    0.925E-03
DAV:  29    -0.209325700370E+04   -0.10061E-03   -0.45909E-06  2528   0.363E-03    0.834E-03
DAV:  30    -0.209325705230E+04   -0.48601E-04   -0.36470E-06  2464   0.362E-03    0.752E-03
DAV:  31    -0.209325707499E+04   -0.22688E-04   -0.20106E-06  2520   0.213E-03    0.728E-03
DAV:  32    -0.209325708849E+04   -0.13504E-04   -0.10840E-06  2464   0.147E-03    0.701E-03
DAV:  33    -0.209325709684E+04   -0.83459E-05   -0.58089E-07  2488   0.983E-04    0.697E-03
DAV:  34    -0.209325710315E+04   -0.63068E-05   -0.34394E-07  2464   0.805E-04    0.694E-03
DAV:  35    -0.209325710641E+04   -0.32663E-05   -0.22278E-07  2488   0.610E-04
   5 F= -.21532348E+04 E0= -.21531574E+04  d E =-.368382E+02
 curvature:   5.59 expect dE= 0.142E+03 dE for cont linesearch  0.196E+01
 ZBRENT: bracketing found
 ZBRENT: interpolating
 opt :   1.8242  next Energy= -2154.505946 (dE=-0.381E+02)
 bond charge predicted
       N       E                     dE             d eps       ncg     rms          rms(c)
DAV:   1    -0.209318833592E+04    0.68767E-01   -0.78365E+02  4064   0.373E+01    0.138E+01
DAV:   2    -0.209860952328E+04   -0.54212E+01   -0.32109E+01  5208   0.152E+01    0.139E+01
DAV:   3    -0.209535510607E+04    0.32544E+01   -0.72259E+00  4656   0.716E+00    0.927E+00
DAV:   4    -0.209529321812E+04    0.61888E-01   -0.29083E+00  5600   0.461E+00    0.118E+01
DAV:   5    -0.209516626274E+04    0.12696E+00   -0.65051E+00  5952   0.401E+00    0.100E+01
DAV:   6    -0.209491386892E+04    0.25239E+00   -0.29940E+00  5888   0.325E+00    0.737E+00
DAV:   7    -0.209470914063E+04    0.20473E+00   -0.11751E+00  5984   0.293E+00    0.625E+00
DAV:   8    -0.209458478267E+04    0.12436E+00   -0.11609E+00  5632   0.196E+00    0.423E+00
DAV:   9    -0.209453050022E+04    0.54282E-01   -0.39929E-01  5192   0.131E+00    0.243E+00
DAV:  10    -0.209453058435E+04   -0.84129E-04   -0.15116E-01  5464   0.827E-01    0.230E+00
DAV:  11    -0.209450310717E+04    0.27477E-01   -0.83151E-02  4928   0.515E-01    0.107E+00
DAV:  12    -0.209453049414E+04   -0.27387E-01   -0.14487E-01  5176   0.597E-01    0.199E+00
DAV:  13    -0.209450972320E+04    0.20771E-01   -0.35130E-01  5456   0.102E+00    0.821E-01
DAV:  14    -0.209450672316E+04    0.30000E-02   -0.24919E-02  5032   0.291E-01    0.595E-01
DAV:  15    -0.209450157521E+04    0.51479E-02   -0.89227E-03  5880   0.344E-01    0.497E-01
DAV:  16    -0.209450069503E+04    0.88018E-03   -0.13646E-02  6256   0.261E-01    0.319E-01
DAV:  17    -0.209450068049E+04    0.14542E-04   -0.12287E-02  4688   0.185E-01    0.242E-01
DAV:  18    -0.209450078881E+04   -0.10832E-03   -0.19512E-03  4896   0.118E-01    0.189E-01
DAV:  19    -0.209450077363E+04    0.15173E-04   -0.10363E-03  5352   0.788E-02    0.141E-01
DAV:  20    -0.209450080800E+04   -0.34366E-04   -0.54781E-04  5272   0.436E-02    0.853E-02
DAV:  21    -0.209450090827E+04   -0.10027E-03   -0.25556E-04  4960   0.275E-02    0.635E-02
DAV:  22    -0.209450113348E+04   -0.22521E-03   -0.40393E-04  4560   0.453E-02    0.790E-02
DAV:  23    -0.209450127096E+04   -0.13748E-03   -0.24645E-04  4472   0.346E-02    0.239E-02
DAV:  24    -0.209450139915E+04   -0.12819E-03   -0.70358E-05  3808   0.199E-02    0.323E-02
DAV:  25    -0.209450146841E+04   -0.69253E-04   -0.37644E-05  2488   0.140E-02    0.154E-02
DAV:  26    -0.209450152885E+04   -0.60444E-04   -0.99728E-06  2496   0.564E-03    0.113E-02
DAV:  27    -0.209450167349E+04   -0.14464E-03   -0.84525E-06  2544   0.489E-03    0.107E-02
DAV:  28    -0.209450177581E+04   -0.10232E-03   -0.56983E-06  2456   0.435E-03    0.921E-03
DAV:  29    -0.209450184898E+04   -0.73174E-04   -0.59900E-06  2488   0.494E-03    0.902E-03
DAV:  30    -0.209450187658E+04   -0.27595E-04   -0.37085E-06  2520   0.394E-03    0.763E-03
DAV:  31    -0.209450192492E+04   -0.48347E-04   -0.41970E-06  2464   0.302E-03    0.714E-03
DAV:  32    -0.209450194019E+04   -0.15268E-04   -0.22203E-06  2464   0.258E-03    0.663E-03
DAV:  33    -0.209450194531E+04   -0.51180E-05   -0.93657E-07  2504   0.136E-03    0.655E-03
DAV:  34    -0.209450194832E+04   -0.30114E-05   -0.47304E-07  2448   0.115E-03
   6 F= -.21544435E+04 E0= -.21543550E+04  d E =-.380469E+02
 curvature:  -1.64 expect dE=-0.229E+02 dE for cont linesearch -0.285E-02
 trial: gam= 0.17441 g(F)=  0.139E+02 g(S)=  0.000E+00 ort =-0.377E+00 (trialstep = 0.116E+01)
 search vector abs. value=  0.163E+02
 bond charge predicted
       N       E                     dE             d eps       ncg     rms          rms(c)
DAV:   1    -0.209690315714E+04   -0.24012E+01   -0.18284E+03  4040   0.595E+01    0.185E+01
DAV:   2    -0.210510566726E+04   -0.82025E+01   -0.69354E+01  5152   0.121E+01    0.197E+01
DAV:   3    -0.210606386636E+04   -0.95820E+00   -0.18536E+01  5800   0.105E+01    0.182E+01
DAV:   4    -0.210451638074E+04    0.15475E+01   -0.61356E+00  5456   0.584E+00    0.151E+01
DAV:   5    -0.210201507203E+04    0.25013E+01   -0.21092E+00  5856   0.443E+00    0.793E+00
DAV:   6    -0.210202117842E+04   -0.61064E-02   -0.24177E+00  5720   0.287E+00    0.634E+00
DAV:   7    -0.210197636737E+04    0.44811E-01   -0.16580E+00  5800   0.280E+00    0.863E+00
DAV:   8    -0.210187852129E+04    0.97846E-01   -0.14446E+00  5520   0.201E+00    0.724E+00
DAV:   9    -0.210179155302E+04    0.86968E-01   -0.26727E+00  5752   0.190E+00    0.496E+00
DAV:  10    -0.210170587100E+04    0.85682E-01   -0.54185E-01  5368   0.130E+00    0.304E+00
DAV:  11    -0.210168499846E+04    0.20873E-01   -0.23364E-01  5512   0.889E-01    0.224E+00
DAV:  12    -0.210168974271E+04   -0.47442E-02   -0.11657E-01  5240   0.600E-01    0.189E+00
DAV:  13    -0.210167637669E+04    0.13366E-01   -0.53237E-02  5600   0.455E-01    0.106E+00
DAV:  14    -0.210167548793E+04    0.88876E-03   -0.26178E-02  5576   0.332E-01    0.527E-01
DAV:  15    -0.210167596745E+04   -0.47952E-03   -0.63633E-03  4960   0.173E-01    0.381E-01
DAV:  16    -0.210167603547E+04   -0.68016E-04   -0.28946E-03  5072   0.110E-01    0.244E-01
DAV:  17    -0.210167690063E+04   -0.86516E-03   -0.24956E-03  5440   0.882E-02    0.245E-01
DAV:  18    -0.210167708610E+04   -0.18547E-03   -0.68959E-04  5072   0.603E-02    0.135E-01
DAV:  19    -0.210167740483E+04   -0.31873E-03   -0.26487E-04  5072   0.353E-02    0.852E-02
DAV:  20    -0.210167776041E+04   -0.35558E-03   -0.15578E-04  5136   0.255E-02    0.550E-02
DAV:  21    -0.210167808051E+04   -0.32010E-03   -0.10006E-04  4800   0.212E-02    0.430E-02
DAV:  22    -0.210167830754E+04   -0.22703E-03   -0.35709E-05  4000   0.121E-02    0.297E-02
DAV:  23    -0.210167851103E+04   -0.20349E-03   -0.13928E-05  2688   0.877E-03    0.223E-02
DAV:  24    -0.210167875204E+04   -0.24101E-03   -0.18376E-05  3208   0.789E-03    0.183E-02
DAV:  25    -0.210167914235E+04   -0.39031E-03   -0.32050E-05  3680   0.815E-03    0.160E-02
DAV:  26    -0.210167930644E+04   -0.16409E-03   -0.95165E-06  2632   0.606E-03    0.127E-02
DAV:  27    -0.210167945630E+04   -0.14986E-03   -0.10830E-05  2832   0.462E-03    0.113E-02
DAV:  28    -0.210167954680E+04   -0.90502E-04   -0.43049E-06  2504   0.364E-03    0.926E-03
DAV:  29    -0.210167963833E+04   -0.91529E-04   -0.51453E-06  2528   0.317E-03    0.772E-03
DAV:  30    -0.210167968449E+04   -0.46166E-04   -0.28946E-06  2496   0.256E-03    0.696E-03
DAV:  31    -0.210167970517E+04   -0.20676E-04   -0.17436E-06  2504   0.181E-03    0.651E-03
DAV:  32    -0.210167971699E+04   -0.11825E-04   -0.95656E-07  2480   0.134E-03    0.632E-03
DAV:  33    -0.210167972999E+04   -0.12998E-04   -0.69608E-07  2448   0.108E-03    0.629E-03
DAV:  34    -0.210167973614E+04   -0.61432E-05   -0.41440E-07  2496   0.907E-04    0.622E-03
DAV:  35    -0.210167973842E+04   -0.22808E-05   -0.23731E-07  2528   0.630E-04
   7 F= -.21616530E+04 E0= -.21615673E+04  d E =-.720958E+01
 trial-energy change:   -7.209578  1 .order   -8.632242  -16.136553   -1.127930
 step:   1.4810(harm=  1.2524)  dis= 0.22060  next Energy= -2161.777664 (dE=-0.733E+01)
 bond charge predicted
       N       E                     dE             d eps       ncg     rms          rms(c)
DAV:   1    -0.210147723255E+04    0.20250E+00   -0.13194E+02  4048   0.157E+01    0.444E+00
DAV:   2    -0.210201309558E+04   -0.53586E+00   -0.44455E+00  5304   0.293E+00    0.653E+00
DAV:   3    -0.210196772367E+04    0.45372E-01   -0.18661E+00  5704   0.252E+00    0.564E+00
DAV:   4    -0.210178126786E+04    0.18646E+00   -0.73909E-01  5752   0.179E+00    0.437E+00
DAV:   5    -0.210171994095E+04    0.61327E-01   -0.62679E-01  5792   0.121E+00    0.266E+00
DAV:   6    -0.210169398947E+04    0.25951E-01   -0.15364E-01  5360   0.793E-01    0.190E+00
DAV:   7    -0.210170871564E+04   -0.14726E-01   -0.15169E-01  5360   0.614E-01    0.231E+00
DAV:   8    -0.210168326024E+04    0.25455E-01   -0.16180E-01  5544   0.494E-01    0.125E+00
DAV:   9    -0.210169240870E+04   -0.91485E-02   -0.46662E-02  5544   0.429E-01    0.117E+00
DAV:  10    -0.210168644226E+04    0.59664E-02   -0.20227E-02  5400   0.268E-01    0.613E-01
DAV:  11    -0.210168594465E+04    0.49761E-03   -0.97971E-03  5360   0.174E-01    0.311E-01
DAV:  12    -0.210168617751E+04   -0.23286E-03   -0.21361E-03  5312   0.115E-01    0.206E-01
DAV:  13    -0.210168605370E+04    0.12381E-03   -0.10163E-03  5208   0.719E-02    0.109E-01
DAV:  14    -0.210168611884E+04   -0.65137E-04   -0.24016E-04  4872   0.346E-02    0.768E-02
DAV:  15    -0.210168618775E+04   -0.68918E-04   -0.84144E-05  4968   0.228E-02    0.622E-02
DAV:  16    -0.210168627827E+04   -0.90518E-04   -0.59035E-05  4520   0.190E-02    0.431E-02
DAV:  17    -0.210168634941E+04   -0.71138E-04   -0.29892E-05  3232   0.128E-02    0.204E-02
DAV:  18    -0.210168640075E+04   -0.51341E-04   -0.12526E-05  2552   0.737E-03    0.131E-02
DAV:  19    -0.210168645060E+04   -0.49852E-04   -0.66972E-06  2464   0.519E-03    0.113E-02
DAV:  20    -0.210168651449E+04   -0.63889E-04   -0.55823E-06  2456   0.430E-03    0.983E-03
DAV:  21    -0.210168656763E+04   -0.53139E-04   -0.42674E-06  2448   0.365E-03    0.821E-03
DAV:  22    -0.210168662600E+04   -0.58366E-04   -0.46947E-06  2504   0.307E-03    0.852E-03
DAV:  23    -0.210168666246E+04   -0.36463E-04   -0.30335E-06  2456   0.289E-03    0.772E-03
DAV:  24    -0.210168668873E+04   -0.26267E-04   -0.24897E-06  2448   0.214E-03    0.697E-03
DAV:  25    -0.210168670514E+04   -0.16413E-04   -0.17299E-06  2464   0.173E-03    0.689E-03
DAV:  26    -0.210168671162E+04   -0.64814E-05   -0.99639E-07  2520   0.131E-03    0.676E-03
DAV:  27    -0.210168671784E+04   -0.62202E-05   -0.65785E-07  2432   0.107E-03    0.664E-03
DAV:  28    -0.210168672139E+04   -0.35503E-05   -0.41082E-07  2464   0.821E-04
   8 F= -.21616704E+04 E0= -.21615852E+04  d E =-.722693E+01
 curvature:   4.28 expect dE= 0.295E+02 dE for cont linesearch  0.169E+00
 trial: gam= 0.58637 g(F)=  0.688E+01 g(S)=  0.000E+00 ort =-0.801E+00 (trialstep = 0.123E+01)
 search vector abs. value=  0.115E+02
 bond charge predicted
       N       E                     dE             d eps       ncg     rms          rms(c)
DAV:   1    -0.210676943313E+04   -0.50827E+01   -0.14212E+03  4128   0.526E+01    0.203E+01
DAV:   2    -0.210998944713E+04   -0.32200E+01   -0.31250E+01  5176   0.808E+00    0.132E+01
DAV:   3    -0.211255334467E+04   -0.25639E+01   -0.65120E+00  5872   0.799E+00    0.201E+01
DAV:   4    -0.211002526632E+04    0.25281E+01   -0.89033E+00  6248   0.623E+00    0.889E+00
DAV:   5    -0.210978862045E+04    0.23665E+00   -0.28393E+00  5888   0.405E+00    0.115E+01
DAV:   6    -0.210912228073E+04    0.66634E+00   -0.32271E+00  5680   0.273E+00    0.468E+00
DAV:   7    -0.210928344100E+04   -0.16116E+00   -0.10655E+00  5672   0.212E+00    0.552E+00
DAV:   8    -0.210922898780E+04    0.54453E-01   -0.82040E-01  5608   0.186E+00    0.525E+00
DAV:   9    -0.210905724848E+04    0.17174E+00   -0.46133E-01  5480   0.106E+00    0.227E+00
DAV:  10    -0.210906667426E+04   -0.94258E-02   -0.83298E-02  5176   0.544E-01    0.160E+00
DAV:  11    -0.210906092222E+04    0.57520E-02   -0.51561E-02  5224   0.415E-01    0.105E+00
DAV:  12    -0.210906476339E+04   -0.38412E-02   -0.27349E-02  5208   0.392E-01    0.897E-01
DAV:  13    -0.210906214041E+04    0.26230E-02   -0.18425E-02  5344   0.288E-01    0.525E-01
DAV:  14    -0.210906280144E+04   -0.66103E-03   -0.76359E-03  5184   0.201E-01    0.440E-01
DAV:  15    -0.210906245010E+04    0.35134E-03   -0.34217E-03  5320   0.136E-01    0.302E-01
DAV:  16    -0.210906285373E+04   -0.40363E-03   -0.16084E-03  5248   0.935E-02    0.182E-01
DAV:  17    -0.210906345869E+04   -0.60496E-03   -0.73131E-04  5040   0.576E-02    0.110E-01
DAV:  18    -0.210906393990E+04   -0.48121E-03   -0.34913E-04  5112   0.402E-02    0.663E-02
DAV:  19    -0.210906420937E+04   -0.26947E-03   -0.12644E-04  5080   0.222E-02    0.446E-02
DAV:  20    -0.210906454957E+04   -0.34020E-03   -0.69179E-05  4376   0.138E-02    0.362E-02
DAV:  21    -0.210906498554E+04   -0.43597E-03   -0.51792E-05  4224   0.130E-02    0.275E-02
DAV:  22    -0.210906538300E+04   -0.39746E-03   -0.40632E-05  3920   0.123E-02    0.240E-02
DAV:  23    -0.210906557394E+04   -0.19094E-03   -0.16820E-05  2840   0.884E-03    0.169E-02
DAV:  24    -0.210906581061E+04   -0.23667E-03   -0.20641E-05  3248   0.659E-03    0.119E-02
DAV:  25    -0.210906602981E+04   -0.21920E-03   -0.12368E-05  2848   0.552E-03    0.124E-02
DAV:  26    -0.210906623559E+04   -0.20578E-03   -0.16790E-05  3248   0.522E-03    0.103E-02
DAV:  27    -0.210906633604E+04   -0.10045E-03   -0.44693E-06  2528   0.366E-03    0.830E-03
DAV:  28    -0.210906639265E+04   -0.56612E-04   -0.30911E-06  2480   0.305E-03    0.728E-03
DAV:  29    -0.210906642582E+04   -0.33168E-04   -0.17704E-06  2504   0.216E-03    0.664E-03
DAV:  30    -0.210906645151E+04   -0.25687E-04   -0.10248E-06  2472   0.153E-03    0.652E-03
DAV:  31    -0.210906646856E+04   -0.17058E-04   -0.61858E-07  2472   0.126E-03    0.651E-03
DAV:  32    -0.210906648119E+04   -0.12625E-04   -0.46347E-07  2472   0.110E-03    0.642E-03
DAV:  33    -0.210906648712E+04   -0.59353E-05   -0.32188E-07  2520   0.866E-04    0.639E-03
DAV:  34    -0.210906648974E+04   -0.26181E-05   -0.18831E-07  2504   0.595E-04
   9 F= -.21691136E+04 E0= -.21690315E+04  d E =-.744321E+01
 ZBRENT: can't locate minimum, use default step
 trial-energy change:   -7.443214  1 .order   -7.342902   -7.869652   -6.816153
 step:   4.9122(harm=  9.1736)  dis= 0.38200  next Energy= -2191.063608 (dE=-0.294E+02)
 bond charge predicted
       N       E                     dE             d eps       ncg     rms          rms(c)
DAV:   1    -0.208077659426E+04    0.28290E+02   -0.12850E+04  4112   0.165E+02    0.760E+01
DAV:   2    -0.213249097217E+04   -0.51714E+02   -0.47966E+02  4904   0.305E+01    0.454E+01
DAV:   3    -0.216679595107E+04   -0.34305E+02   -0.50233E+01  5672   0.274E+01    0.696E+01
DAV:   4    -0.212424171872E+04    0.42554E+02   -0.26581E+01  5704   0.175E+01    0.334E+01
DAV:   5    -0.212676672370E+04   -0.25250E+01   -0.42440E+01  6136   0.159E+01    0.220E+01
DAV:   6    -0.212492690313E+04    0.18398E+01   -0.87432E+00  5080   0.778E+00    0.216E+01
DAV:   7    -0.212210468426E+04    0.28222E+01   -0.64700E+00  5776   0.614E+00    0.159E+01
DAV:   8    -0.212036011767E+04    0.17446E+01   -0.42885E+00  6040   0.501E+00    0.112E+01
DAV:   9    -0.211932555087E+04    0.10346E+01   -0.20504E+00  5496   0.327E+00    0.641E+00
DAV:  10    -0.211960047307E+04   -0.27492E+00   -0.14124E+00  5424   0.241E+00    0.940E+00
DAV:  11    -0.211925771275E+04    0.34276E+00   -0.11093E+00  5328   0.211E+00    0.518E+00
DAV:  12    -0.211922238386E+04    0.35329E-01   -0.31203E-01  5296   0.123E+00    0.450E+00
DAV:  13    -0.211917955754E+04    0.42826E-01   -0.38960E-01  5320   0.949E-01    0.308E+00
DAV:  14    -0.211917755124E+04    0.20063E-02   -0.18325E-01  5368   0.744E-01    0.241E+00
DAV:  15    -0.211917604382E+04    0.15074E-02   -0.98152E-02  5208   0.728E-01    0.214E+00
DAV:  16    -0.211916175730E+04    0.14287E-01   -0.78493E-02  5048   0.513E-01    0.133E+00
DAV:  17    -0.211916315109E+04   -0.13938E-02   -0.34408E-02  4936   0.322E-01    0.930E-01
DAV:  18    -0.211916410297E+04   -0.95188E-03   -0.11997E-02  5440   0.236E-01    0.711E-01
DAV:  19    -0.211916505553E+04   -0.95256E-03   -0.47965E-03  4808   0.149E-01    0.352E-01
DAV:  20    -0.211916736540E+04   -0.23099E-02   -0.23398E-03  5104   0.104E-01    0.246E-01
DAV:  21    -0.211916914176E+04   -0.17764E-02   -0.16344E-03  5096   0.870E-02    0.206E-01
DAV:  22    -0.211917003832E+04   -0.89655E-03   -0.88008E-04  5168   0.586E-02    0.123E-01
DAV:  23    -0.211917088710E+04   -0.84878E-03   -0.35147E-04  4576   0.308E-02    0.696E-02
DAV:  24    -0.211917164838E+04   -0.76128E-03   -0.14613E-04  5048   0.234E-02    0.493E-02
DAV:  25    -0.211917264778E+04   -0.99940E-03   -0.12919E-04  4328   0.201E-02    0.404E-02
DAV:  26    -0.211917376653E+04   -0.11187E-02   -0.15239E-04  4184   0.197E-02    0.499E-02
DAV:  27    -0.211917431865E+04   -0.55213E-03   -0.70778E-05  4688   0.127E-02    0.370E-02
DAV:  28    -0.211917480403E+04   -0.48538E-03   -0.69099E-05  4128   0.126E-02    0.469E-02
DAV:  29    -0.211917510349E+04   -0.29946E-03   -0.49384E-05  3784   0.115E-02    0.306E-02
DAV:  30    -0.211917526876E+04   -0.16527E-03   -0.17254E-05  3016   0.645E-03    0.132E-02
DAV:  31    -0.211917535744E+04   -0.88675E-04   -0.52746E-06  2640   0.428E-03    0.982E-03
DAV:  32    -0.211917542316E+04   -0.65726E-04   -0.35845E-06  2552   0.395E-03    0.131E-02
DAV:  33    -0.211917547913E+04   -0.55966E-04   -0.22310E-06  2592   0.317E-03    0.170E-02
DAV:  34    -0.211917552453E+04   -0.45399E-04   -0.27548E-06  2544   0.307E-03    0.877E-03
DAV:  35    -0.211917555338E+04   -0.28854E-04   -0.11889E-06  2592   0.186E-03    0.841E-03
DAV:  36    -0.211917556912E+04   -0.15741E-04   -0.69353E-07  2592   0.142E-03    0.820E-03
DAV:  37    -0.211917558185E+04   -0.12728E-04   -0.56226E-07  2536   0.114E-03    0.796E-03
DAV:  38    -0.211917558752E+04   -0.56712E-05   -0.35458E-07  2592   0.866E-04    0.769E-03
DAV:  39    -0.211917558980E+04   -0.22808E-05   -0.17350E-07  2600   0.516E-04
  10 F= -.21793647E+04 E0= -.21792862E+04  d E =-.176943E+02
 curvature:  -5.88 expect dE=-0.152E+03 dE for cont linesearch -0.358E+00
 trial: gam= 3.41983 g(F)=  0.259E+02 g(S)=  0.000E+00 ort =-0.837E+00 (trialstep = 0.146E+00)
 search vector abs. value=  0.155E+03
 bond charge predicted
       N       E                     dE             d eps       ncg     rms          rms(c)
DAV:   1    -0.212205489950E+04   -0.28793E+01   -0.27957E+02  4080   0.226E+01    0.136E+01
DAV:   2    -0.212271401920E+04   -0.65912E+00   -0.53296E+00  5080   0.325E+00    0.101E+01
DAV:   3    -0.212579177546E+04   -0.30778E+01   -0.56314E+00  6184   0.619E+00    0.157E+01
DAV:   4    -0.212338532092E+04    0.24065E+01   -0.19894E+00  5784   0.430E+00    0.106E+01
DAV:   5    -0.212280446160E+04    0.58086E+00   -0.12396E+00  6016   0.272E+00    0.104E+01
DAV:   6    -0.212246861492E+04    0.33585E+00   -0.11946E+00  5320   0.175E+00    0.489E+00
DAV:   7    -0.212245228512E+04    0.16330E-01   -0.37234E-01  5640   0.131E+00    0.471E+00
DAV:   8    -0.212240652491E+04    0.45760E-01   -0.52801E-01  5512   0.965E-01    0.285E+00
DAV:   9    -0.212238883294E+04    0.17692E-01   -0.10745E-01  5416   0.553E-01    0.136E+00
DAV:  10    -0.212238831284E+04    0.52010E-03   -0.21690E-02  5376   0.335E-01    0.875E-01
DAV:  11    -0.212239068858E+04   -0.23757E-02   -0.74717E-03  5152   0.251E-01    0.706E-01
DAV:  12    -0.212239069841E+04   -0.98326E-05   -0.44135E-03  5112   0.163E-01    0.446E-01
DAV:  13    -0.212239054372E+04    0.15469E-03   -0.24498E-03  5272   0.129E-01    0.279E-01
DAV:  14    -0.212239119036E+04   -0.64664E-03   -0.18287E-03  5144   0.945E-02    0.229E-01
DAV:  15    -0.212239113774E+04    0.52617E-04   -0.87794E-04  5296   0.642E-02    0.140E-01
DAV:  16    -0.212239129225E+04   -0.15450E-03   -0.24592E-04  5296   0.391E-02    0.969E-02
DAV:  17    -0.212239145327E+04   -0.16103E-03   -0.19296E-04  5144   0.270E-02    0.697E-02
DAV:  18    -0.212239167030E+04   -0.21703E-03   -0.80613E-05  4552   0.211E-02    0.384E-02
DAV:  19    -0.212239180756E+04   -0.13726E-03   -0.34452E-05  4040   0.145E-02    0.273E-02
DAV:  20    -0.212239191102E+04   -0.10346E-03   -0.12389E-05  2728   0.876E-03    0.156E-02
DAV:  21    -0.212239200495E+04   -0.93928E-04   -0.91287E-06  2680   0.682E-03    0.133E-02
DAV:  22    -0.212239215150E+04   -0.14654E-03   -0.15864E-05  3232   0.669E-03    0.126E-02
DAV:  23    -0.212239226705E+04   -0.11555E-03   -0.77080E-06  2768   0.553E-03    0.111E-02
DAV:  24    -0.212239233986E+04   -0.72813E-04   -0.55525E-06  2640   0.425E-03    0.969E-03
DAV:  25    -0.212239237849E+04   -0.38628E-04   -0.38034E-06  2640   0.315E-03    0.898E-03
DAV:  26    -0.212239241114E+04   -0.32648E-04   -0.29658E-06  2592   0.222E-03    0.857E-03
DAV:  27    -0.212239243087E+04   -0.19730E-04   -0.19645E-06  2608   0.185E-03    0.852E-03
DAV:  28    -0.212239244392E+04   -0.13050E-04   -0.14592E-06  2616   0.151E-03    0.825E-03
DAV:  29    -0.212239244807E+04   -0.41508E-05   -0.74620E-07  2672   0.107E-03
  11 F= -.21825925E+04 E0= -.21825220E+04  d E =-.322785E+01
 ZBRENT: can't locate minimum, use default step
 trial-energy change:   -3.227849  1 .order   -3.206119   -3.369528   -3.042710
 step:   0.5845(harm=  1.5067)  dis= 0.16716  next Energy= -2196.734808 (dE=-0.174E+02)
 bond charge predicted
       N       E                     dE             d eps       ncg     rms          rms(c)
DAV:   1    -0.212397106851E+04   -0.15786E+01   -0.25553E+03  4072   0.697E+01    0.445E+01
DAV:   2    -0.213829813551E+04   -0.14327E+02   -0.64788E+01  5096   0.125E+01    0.428E+01
DAV:   3    -0.214152736065E+04   -0.32292E+01   -0.41386E+01  6336   0.206E+01    0.296E+01
DAV:   4    -0.214790958298E+04   -0.63822E+01   -0.15766E+01  5696   0.106E+01    0.310E+01
DAV:   5    -0.213812254427E+04    0.97870E+01   -0.90718E+00  5424   0.909E+00    0.191E+01
DAV:   6    -0.213589421771E+04    0.22283E+01   -0.38999E+00  5760   0.507E+00    0.158E+01
DAV:   7    -0.213359485763E+04    0.22994E+01   -0.28789E+00  5856   0.406E+00    0.149E+01
DAV:   8    -0.213178037729E+04    0.18145E+01   -0.13001E+00  5464   0.276E+00    0.103E+01
DAV:   9    -0.213078871157E+04    0.99167E+00   -0.48962E-01  5328   0.160E+00    0.815E+00
DAV:  10    -0.212955341556E+04    0.12353E+01   -0.30087E-01  6792   0.233E+00    0.740E+00
DAV:  11    -0.212879645089E+04    0.75696E+00   -0.35202E-01  5560   0.162E+00    0.571E+00
DAV:  12    -0.212840138682E+04    0.39506E+00   -0.24522E-01  5648   0.141E+00    0.437E+00
DAV:  13    -0.212824329548E+04    0.15809E+00   -0.20816E-01  5496   0.114E+00    0.324E+00
DAV:  14    -0.212828225250E+04   -0.38957E-01   -0.28079E-01  5112   0.784E-01    0.320E+00
DAV:  15    -0.212822381106E+04    0.58441E-01   -0.81611E-02  5448   0.668E-01    0.287E+00
DAV:  16    -0.212825959782E+04   -0.35787E-01   -0.12631E-01  5696   0.643E-01    0.287E+00
DAV:  17    -0.212825951151E+04    0.86315E-04   -0.20601E-01  6000   0.867E-01    0.387E+00
DAV:  18    -0.212822000341E+04    0.39508E-01   -0.37032E-02  4840   0.298E-01    0.268E+00
DAV:  19    -0.212819558117E+04    0.24422E-01   -0.52987E-02  6056   0.373E-01    0.742E-01
DAV:  20    -0.212825459228E+04   -0.59011E-01   -0.66175E-02  5672   0.413E-01    0.292E+00
DAV:  21    -0.212820076843E+04    0.53824E-01   -0.57234E-02  5496   0.308E-01    0.541E-01
DAV:  22    -0.212822798184E+04   -0.27213E-01   -0.14487E-02  5712   0.227E-01    0.122E+00
DAV:  23    -0.212822059197E+04    0.73899E-02   -0.73907E-03  4792   0.178E-01    0.257E-01
DAV:  24    -0.212822252241E+04   -0.19304E-02   -0.80816E-04  5176   0.546E-02    0.153E-01
DAV:  25    -0.212822317942E+04   -0.65701E-03   -0.26666E-04  5048   0.323E-02    0.995E-02
DAV:  26    -0.212822525712E+04   -0.20777E-02   -0.17676E-03  5968   0.758E-02    0.517E-01
DAV:  27    -0.212822388837E+04    0.13687E-02   -0.73764E-04  5272   0.563E-02    0.177E-01
DAV:  28    -0.212822441215E+04   -0.52378E-03   -0.24320E-04  5320   0.240E-02    0.408E-02
DAV:  29    -0.212822470773E+04   -0.29558E-03   -0.47709E-05  4360   0.113E-02    0.373E-02
DAV:  30    -0.212822492388E+04   -0.21615E-03   -0.36958E-05  2952   0.121E-02    0.104E-01
DAV:  31    -0.212822513064E+04   -0.20676E-03   -0.10810E-04  3904   0.181E-02    0.300E-02
DAV:  32    -0.212822537486E+04   -0.24422E-03   -0.53608E-05  3840   0.123E-02    0.975E-02
DAV:  33    -0.212822537310E+04    0.17593E-05   -0.51833E-05  2736   0.123E-02    0.161E-02
DAV:  34    -0.212822549723E+04   -0.12413E-03   -0.11791E-05  2840   0.384E-03    0.119E-02
DAV:  35    -0.212822556602E+04   -0.68797E-04   -0.55320E-06  2664   0.338E-03    0.162E-02
DAV:  36    -0.212822559259E+04   -0.26564E-04   -0.23794E-06  2656   0.208E-03    0.208E-02
DAV:  37    -0.212822560829E+04   -0.15707E-04   -0.63914E-06  2624   0.468E-03    0.168E-02
DAV:  38    -0.212822561527E+04   -0.69790E-05   -0.13380E-06  2720   0.217E-03    0.102E-02
DAV:  39    -0.212822561866E+04   -0.33913E-05   -0.69404E-07  2632   0.114E-03
  12 F= -.21884680E+04 E0= -.21884050E+04  d E =-.910329E+01
 curvature:  -2.74 expect dE=-0.800E+02 dE for cont linesearch -0.214E+00
 trial: gam= 0.24881 g(F)=  0.292E+02 g(S)=  0.000E+00 ort = 0.348E+01 (trialstep = 0.234E+00)
 search vector abs. value=  0.405E+02
 bond charge predicted
       N       E                     dE             d eps       ncg     rms          rms(c)
DAV:   1    -0.213455809181E+04   -0.63325E+01   -0.25466E+02  4032   0.220E+01    0.153E+01
DAV:   2    -0.213889341296E+04   -0.43353E+01   -0.85445E+00  5424   0.512E+00    0.250E+01
DAV:   3    -0.213566387545E+04    0.32295E+01   -0.91017E+00  5888   0.645E+00    0.119E+01
DAV:   4    -0.213779519946E+04   -0.21313E+01   -0.26217E+00  5592   0.424E+00    0.187E+01
DAV:   5    -0.213557149640E+04    0.22237E+01   -0.35012E+00  5880   0.401E+00    0.116E+01
DAV:   6    -0.213558909035E+04   -0.17594E-01   -0.10890E+00  5632   0.244E+00    0.875E+00
DAV:   7    -0.213497439123E+04    0.61470E+00   -0.26551E-01  5480   0.161E+00    0.526E+00
DAV:   8    -0.213487774772E+04    0.96644E-01   -0.30792E-01  5648   0.106E+00    0.376E+00
DAV:   9    -0.213483573480E+04    0.42013E-01   -0.81315E-02  4880   0.444E-01    0.274E+00
DAV:  10    -0.213484956471E+04   -0.13830E-01   -0.15343E-02  5216   0.275E-01    0.273E+00
DAV:  11    -0.213483797400E+04    0.11591E-01   -0.89984E-03  5128   0.201E-01    0.231E+00
DAV:  12    -0.213482834457E+04    0.96294E-02   -0.41984E-02  5744   0.359E-01    0.142E+00
DAV:  13    -0.213483158448E+04   -0.32399E-02   -0.31782E-02  5232   0.340E-01    0.756E-01
DAV:  14    -0.213483528651E+04   -0.37020E-02   -0.99507E-03  5008   0.161E-01    0.482E-01
DAV:  15    -0.213483596806E+04   -0.68155E-03   -0.15157E-03  4680   0.647E-02    0.382E-01
DAV:  16    -0.213483642995E+04   -0.46189E-03   -0.30731E-03  5456   0.927E-02    0.415E-01
DAV:  17    -0.213483568315E+04    0.74680E-03   -0.36863E-03  5456   0.955E-02    0.222E-01
DAV:  18    -0.213483573476E+04   -0.51604E-04   -0.13165E-03  5432   0.704E-02    0.126E-01
DAV:  19    -0.213483568282E+04    0.51933E-04   -0.29501E-04  5304   0.397E-02    0.680E-02
DAV:  20    -0.213483568676E+04   -0.39334E-05   -0.69327E-05  4904   0.217E-02    0.594E-02
DAV:  21    -0.213483569149E+04   -0.47376E-05   -0.36353E-05  3888   0.122E-02
  13 F= -.21950744E+04 E0= -.21950107E+04  d E =-.660639E+01
 ZBRENT: can't locate minimum, use default step
 trial-energy change:   -6.606387  1 .order   -6.593748   -7.028872   -6.158624
 step:   0.9353(harm=  1.8885)  dis= 0.16573  next Energy= -2210.946504 (dE=-0.225E+02)
 bond charge predicted
       N       E                     dE             d eps       ncg     rms          rms(c)
DAV:   1    -0.214499492987E+04   -0.10159E+02   -0.23223E+03  4032   0.676E+01    0.484E+01
DAV:   2    -0.216901836978E+04   -0.24023E+02   -0.66409E+01  5480   0.149E+01    0.492E+01
DAV:   3    -0.215616353150E+04    0.12855E+02   -0.33383E+01  5840   0.200E+01    0.297E+01
DAV:   4    -0.217099834547E+04   -0.14835E+02   -0.27985E+01  5712   0.124E+01    0.372E+01
DAV:   5    -0.215244539904E+04    0.18553E+02   -0.66956E+00  5384   0.112E+01    0.180E+01
DAV:   6    -0.215177781969E+04    0.66758E+00   -0.41445E+00  5424   0.506E+00    0.197E+01
DAV:   7    -0.214899346164E+04    0.27844E+01   -0.17786E+00  5760   0.382E+00    0.819E+00
DAV:   8    -0.214864876074E+04    0.34470E+00   -0.76100E-01  5384   0.205E+00    0.527E+00
DAV:   9    -0.214857120031E+04    0.77560E-01   -0.44636E-01  5680   0.155E+00    0.481E+00
DAV:  10    -0.214842755053E+04    0.14365E+00   -0.46731E-01  5784   0.138E+00    0.475E+00
DAV:  11    -0.214842711894E+04    0.43158E-03   -0.52968E-01  5304   0.111E+00    0.347E+00
DAV:  12    -0.214838580659E+04    0.41312E-01   -0.15176E-01  4928   0.845E-01    0.269E+00
DAV:  13    -0.214841078376E+04   -0.24977E-01   -0.19297E-01  5400   0.667E-01    0.407E+00
DAV:  14    -0.214833672109E+04    0.74063E-01   -0.22370E-01  5376   0.539E-01    0.116E+00
DAV:  15    -0.214836269109E+04   -0.25970E-01   -0.27238E-02  5504   0.332E-01    0.603E-01
DAV:  16    -0.214836553920E+04   -0.28481E-02   -0.92358E-03  5472   0.188E-01    0.621E-01
DAV:  17    -0.214836534378E+04    0.19541E-03   -0.37308E-03  5248   0.116E-01    0.439E-01
DAV:  18    -0.214836546606E+04   -0.12227E-03   -0.32251E-03  5528   0.122E-01    0.294E-01
DAV:  19    -0.214836537191E+04    0.94145E-04   -0.74303E-04  5064   0.684E-02    0.148E-01
DAV:  20    -0.214836569483E+04   -0.32292E-03   -0.41363E-04  5312   0.431E-02    0.162E-01
DAV:  21    -0.214836573664E+04   -0.41809E-04   -0.40043E-04  5480   0.365E-02    0.537E-02
DAV:  22    -0.214836591740E+04   -0.18076E-03   -0.79028E-05  5040   0.163E-02    0.636E-02
DAV:  23    -0.214836597831E+04   -0.60906E-04   -0.84617E-05  3200   0.186E-02    0.480E-02
DAV:  24    -0.214836603662E+04   -0.58316E-04   -0.25249E-05  2912   0.102E-02    0.201E-02
DAV:  25    -0.214836613367E+04   -0.97049E-04   -0.13359E-05  2824   0.683E-03    0.214E-02
DAV:  26    -0.214836617681E+04   -0.43138E-04   -0.10759E-05  2720   0.511E-03    0.199E-02
DAV:  27    -0.214836621362E+04   -0.36806E-04   -0.39454E-06  2624   0.303E-03    0.110E-02
DAV:  28    -0.214836625210E+04   -0.38487E-04   -0.40298E-06  2672   0.259E-03    0.944E-03
DAV:  29    -0.214836627486E+04   -0.22755E-04   -0.18800E-06  2688   0.208E-03    0.871E-03
DAV:  30    -0.214836628687E+04   -0.12017E-04   -0.12556E-06  2656   0.168E-03    0.780E-03
DAV:  31    -0.214836629716E+04   -0.10287E-04   -0.10707E-06  2640   0.135E-03    0.803E-03
DAV:  32    -0.214836630291E+04   -0.57515E-05   -0.98670E-07  2656   0.123E-03    0.760E-03
DAV:  33    -0.214836630427E+04   -0.13560E-05   -0.47187E-07  2712   0.862E-04
  14 F= -.22086241E+04 E0= -.22085618E+04  d E =-.201562E+02
 curvature:  -0.85 expect dE=-0.181E+02 dE for cont linesearch -0.262E+01
 ZBRENT: increasing intervall
 opt :   2.3382  next Energy= -2203.042280 (dE=-0.146E+02)
 bond charge predicted
       N       E                     dE             d eps       ncg     rms          rms(c)
DAV:   1    -0.210598117591E+04    0.42385E+02   -0.97544E+03  4032   0.142E+02    0.102E+02
DAV:   2    -0.217621398849E+04   -0.70233E+02   -0.38864E+02  5280   0.286E+01    0.101E+02
DAV:   3    -0.214060391875E+04    0.35610E+02   -0.60262E+01  5976   0.289E+01    0.648E+01
DAV:   4    -0.216493708693E+04   -0.24333E+02   -0.52838E+01  5576   0.167E+01    0.484E+01
DAV:   5    -0.214956615376E+04    0.15371E+02   -0.25766E+01  5984   0.230E+01    0.438E+01
DAV:   6    -0.213601330769E+04    0.13553E+02   -0.25066E+01  5856   0.145E+01    0.258E+01
DAV:   7    -0.213154927614E+04    0.44640E+01   -0.96110E+00  5672   0.818E+00    0.179E+01
DAV:   8    -0.213029410643E+04    0.12552E+01   -0.31295E+00  5240   0.350E+00    0.111E+01
DAV:   9    -0.212952105929E+04    0.77305E+00   -0.89054E-01  5344   0.215E+00    0.641E+00
DAV:  10    -0.212963187716E+04   -0.11082E+00   -0.15553E+00  5680   0.252E+00    0.732E+00
DAV:  11    -0.212953696668E+04    0.94910E-01   -0.48319E-01  5280   0.125E+00    0.496E+00
DAV:  12    -0.212945718660E+04    0.79780E-01   -0.16042E-01  5128   0.979E-01    0.325E+00
DAV:  13    -0.212956795775E+04   -0.11077E+00   -0.37646E-01  6344   0.158E+00    0.539E+00
DAV:  14    -0.212947114661E+04    0.96811E-01   -0.96642E-01  6648   0.143E+00    0.338E+00
DAV:  15    -0.212943246927E+04    0.38677E-01   -0.24171E-01  5272   0.822E-01    0.212E+00
DAV:  16    -0.212943339830E+04   -0.92904E-03   -0.35369E-01  5304   0.862E-01    0.142E+00
DAV:  17    -0.212942303409E+04    0.10364E-01   -0.31477E-02  4912   0.291E-01    0.627E-01
DAV:  18    -0.212942392617E+04   -0.89209E-03   -0.25618E-02  5664   0.447E-01    0.795E-01
DAV:  19    -0.212942080604E+04    0.31201E-02   -0.11812E-02  4968   0.203E-01    0.313E-01
DAV:  20    -0.212942219059E+04   -0.13845E-02   -0.32520E-03  5072   0.109E-01    0.207E-01
DAV:  21    -0.212942238053E+04   -0.18995E-03   -0.20705E-03  4800   0.852E-02    0.125E-01
DAV:  22    -0.212942282001E+04   -0.43948E-03   -0.92834E-04  5184   0.594E-02    0.109E-01
DAV:  23    -0.212942319040E+04   -0.37039E-03   -0.32805E-04  4912   0.320E-02    0.597E-02
DAV:  24    -0.212942343615E+04   -0.24575E-03   -0.88548E-05  4808   0.188E-02    0.350E-02
DAV:  25    -0.212942357432E+04   -0.13817E-03   -0.28425E-05  3792   0.118E-02    0.259E-02
DAV:  26    -0.212942377388E+04   -0.19956E-03   -0.24982E-05  3080   0.922E-03    0.145E-02
DAV:  27    -0.212942392852E+04   -0.15464E-03   -0.12578E-05  2960   0.593E-03    0.161E-02
DAV:  28    -0.212942399952E+04   -0.71004E-04   -0.43171E-06  2720   0.427E-03    0.123E-02
DAV:  29    -0.212942409780E+04   -0.98272E-04   -0.75031E-06  2904   0.349E-03    0.111E-02
DAV:  30    -0.212942417705E+04   -0.79254E-04   -0.57292E-06  2752   0.330E-03    0.993E-03
DAV:  31    -0.212942420273E+04   -0.25680E-04   -0.26128E-06  2704   0.260E-03    0.959E-03
DAV:  32    -0.212942421628E+04   -0.13548E-04   -0.17704E-06  2632   0.184E-03    0.948E-03
DAV:  33    -0.212942422883E+04   -0.12548E-04   -0.16126E-06  2624   0.166E-03    0.911E-03
DAV:  34    -0.212942423347E+04   -0.46396E-05   -0.10254E-06  2688   0.133E-03
  15 F= -.21897280E+04 E0= -.21896696E+04  d E =-.125998E+01
 curvature:   1.81 expect dE= 0.101E+04 dE for cont linesearch  0.112E+03
 ZBRENT: bracketing found
 ZBRENT: interpolating
 opt :   1.1909  next Energy= -2210.053230 (dE=-0.216E+02)
 bond charge predicted
       N       E                     dE             d eps       ncg     rms          rms(c)
DAV:   1    -0.213494458781E+04   -0.55204E+01   -0.63831E+03  4120   0.108E+02    0.716E+01
DAV:   2    -0.217116647273E+04   -0.36222E+02   -0.26366E+02  5152   0.294E+01    0.786E+01
DAV:   3    -0.215522783657E+04    0.15939E+02   -0.35847E+01  4728   0.157E+01    0.636E+01
DAV:   4    -0.216445464538E+04   -0.92268E+01   -0.13256E+01  5672   0.117E+01    0.609E+01
DAV:   5    -0.216951322212E+04   -0.50586E+01   -0.39484E+01  7008   0.189E+01    0.499E+01
DAV:   6    -0.216653265074E+04    0.29806E+01   -0.35769E+01  6368   0.166E+01    0.354E+01
DAV:   7    -0.215470700993E+04    0.11826E+02   -0.87629E+00  5832   0.110E+01    0.240E+01
DAV:   8    -0.215188696238E+04    0.28200E+01   -0.14373E+01  5928   0.924E+00    0.169E+01
DAV:   9    -0.215089199347E+04    0.99497E+00   -0.41799E+00  5104   0.365E+00    0.111E+01
DAV:  10    -0.215060257871E+04    0.28941E+00   -0.30086E+00  5752   0.327E+00    0.814E+00
DAV:  11    -0.215048088020E+04    0.12170E+00   -0.56028E-01  5824   0.208E+00    0.635E+00
DAV:  12    -0.215041208862E+04    0.68792E-01   -0.45110E-01  5224   0.132E+00    0.523E+00
DAV:  13    -0.215049639148E+04   -0.84303E-01   -0.30987E-01  5664   0.154E+00    0.797E+00
DAV:  14    -0.215026929806E+04    0.22709E+00   -0.48010E-01  5104   0.913E-01    0.307E+00
DAV:  15    -0.215040841994E+04   -0.13912E+00   -0.42714E-01  5680   0.991E-01    0.407E+00
DAV:  16    -0.215031058932E+04    0.97831E-01   -0.62171E-01  4992   0.133E+00    0.203E+00
DAV:  17    -0.215032351789E+04   -0.12929E-01   -0.42503E-02  5064   0.480E-01    0.195E+00
DAV:  18    -0.215031336339E+04    0.10154E-01   -0.32182E-02  5672   0.348E-01    0.813E-01
DAV:  19    -0.215032114093E+04   -0.77775E-02   -0.12357E-02  5296   0.292E-01    0.407E-01
DAV:  20    -0.215032275428E+04   -0.16134E-02   -0.57204E-03  5176   0.130E-01    0.359E-01
DAV:  21    -0.215032342672E+04   -0.67244E-03   -0.12933E-03  5248   0.796E-02    0.351E-01
DAV:  22    -0.215032258512E+04    0.84160E-03   -0.61904E-04  5456   0.799E-02    0.225E-01
DAV:  23    -0.215032204870E+04    0.53642E-03   -0.43133E-04  6240   0.924E-02    0.171E-01
DAV:  24    -0.215032119051E+04    0.85819E-03   -0.32907E-04  6392   0.101E-01    0.142E-01
DAV:  25    -0.215032079908E+04    0.39143E-03   -0.49416E-04  5704   0.570E-02    0.972E-02
DAV:  26    -0.215032059702E+04    0.20206E-03   -0.13104E-04  4848   0.341E-02    0.819E-02
DAV:  27    -0.215032050357E+04    0.93458E-04   -0.99756E-05  4968   0.200E-02    0.719E-02
DAV:  28    -0.215032038860E+04    0.11497E-03   -0.38091E-05  2728   0.222E-02    0.626E-02
DAV:  29    -0.215032018388E+04    0.20472E-03   -0.13291E-03  5832   0.106E-01    0.417E-02
DAV:  30    -0.215032034399E+04   -0.16011E-03   -0.36433E-04  5256   0.399E-02    0.526E-02
DAV:  31    -0.215032031031E+04    0.33684E-04   -0.12866E-04  4216   0.195E-02    0.354E-02
DAV:  32    -0.215032031189E+04   -0.15796E-05   -0.70637E-06  2664   0.570E-03
  16 F= -.22105860E+04 E0= -.22105255E+04  d E =-.221181E+02
 curvature:  -0.02 expect dE=-0.723E+00 dE for cont linesearch -0.922E-02
 trial: gam= 0.83656 g(F)=  0.314E+02 g(S)=  0.000E+00 ort = 0.403E+01 (trialstep = 0.259E+00)
 search vector abs. value=  0.665E+02
 bond charge predicted
       N       E                     dE             d eps       ncg     rms          rms(c)
DAV:   1    -0.215739166537E+04   -0.70714E+01   -0.54076E+02  4096   0.315E+01    0.200E+01
DAV:   2    -0.216191863960E+04   -0.45270E+01   -0.17794E+01  5528   0.644E+00    0.243E+01
DAV:   3    -0.216012040369E+04    0.17982E+01   -0.47183E+00  5552   0.692E+00    0.203E+01
DAV:   4    -0.216043053775E+04   -0.31013E+00   -0.66763E+00  6368   0.544E+00    0.190E+01
DAV:   5    -0.215867745280E+04    0.17531E+01   -0.51054E+00  5992   0.459E+00    0.106E+01
DAV:   6    -0.215907972596E+04   -0.40227E+00   -0.28909E+00  6336   0.374E+00    0.140E+01
DAV:   7    -0.215812998296E+04    0.94974E+00   -0.21585E+00  5816   0.288E+00    0.471E+00
DAV:   8    -0.215826310566E+04   -0.13312E+00   -0.53717E-01  5520   0.148E+00    0.551E+00
DAV:   9    -0.215813795216E+04    0.12515E+00   -0.62771E-01  5432   0.127E+00    0.296E+00
DAV:  10    -0.215815893690E+04   -0.20985E-01   -0.24994E-01  5520   0.760E-01    0.357E+00
DAV:  11    -0.215810252939E+04    0.56408E-01   -0.10778E-01  5360   0.598E-01    0.155E+00
DAV:  12    -0.215810410567E+04   -0.15763E-02   -0.47550E-02  5656   0.605E-01    0.955E-01
DAV:  13    -0.215810498497E+04   -0.87931E-03   -0.17420E-02  5256   0.294E-01    0.507E-01
DAV:  14    -0.215810502471E+04   -0.39733E-04   -0.59876E-03  5048   0.174E-01    0.351E-01
DAV:  15    -0.215810521997E+04   -0.19527E-03   -0.23338E-03  5384   0.961E-02    0.259E-01
DAV:  16    -0.215810512276E+04    0.97214E-04   -0.12035E-03  5088   0.707E-02    0.182E-01
DAV:  17    -0.215810520998E+04   -0.87220E-04   -0.56527E-04  5432   0.526E-02    0.117E-01
DAV:  18    -0.215810520048E+04    0.94961E-05   -0.37662E-04  5544   0.482E-02    0.611E-02
DAV:  19    -0.215810523394E+04   -0.33456E-04   -0.10115E-04  5000   0.259E-02    0.441E-02
DAV:  20    -0.215810525017E+04   -0.16232E-04   -0.24663E-05  3408   0.139E-02    0.243E-02
DAV:  21    -0.215810527012E+04   -0.19952E-04   -0.15223E-05  2728   0.126E-02    0.153E-02
DAV:  22    -0.215810529064E+04   -0.20516E-04   -0.86694E-06  2736   0.772E-03    0.109E-02
DAV:  23    -0.215810530474E+04   -0.14105E-04   -0.30031E-06  2688   0.425E-03    0.877E-03
DAV:  24    -0.215810531411E+04   -0.93661E-05   -0.13879E-06  2712   0.249E-03    0.739E-03
DAV:  25    -0.215810532173E+04   -0.76235E-05   -0.73330E-07  2680   0.165E-03    0.719E-03
DAV:  26    -0.215810532902E+04   -0.72909E-05   -0.56168E-07  2648   0.140E-03    0.704E-03
DAV:  27    -0.215810533542E+04   -0.63970E-05   -0.38503E-07  2648   0.100E-03    0.695E-03
DAV:  28    -0.215810533937E+04   -0.39457E-05   -0.26988E-07  2712   0.781E-04
  17 F= -.22183758E+04 E0= -.22183178E+04  d E =-.778975E+01
 trial-energy change:   -7.789750  1 .order   -7.767559   -9.014958   -6.520159
 step:   0.8364(harm=  0.9359)  dis= 0.17067  next Energy= -2225.889308 (dE=-0.153E+02)
 bond charge predicted
       N       E                     dE             d eps       ncg     rms          rms(c)
DAV:   1    -0.216148398581E+04   -0.33787E+01   -0.26883E+03  4032   0.713E+01    0.456E+01
DAV:   2    -0.218523599295E+04   -0.23752E+02   -0.98185E+01  5664   0.159E+01    0.484E+01
DAV:   3    -0.217292072731E+04    0.12315E+02   -0.23298E+01  5816   0.168E+01    0.359E+01
DAV:   4    -0.217810997579E+04   -0.51892E+01   -0.16294E+01  6320   0.133E+01    0.351E+01
DAV:   5    -0.216895082742E+04    0.91591E+01   -0.81001E+00  5888   0.103E+01    0.204E+01
DAV:   6    -0.216769887917E+04    0.12519E+01   -0.91464E+00  6152   0.100E+01    0.169E+01
DAV:   7    -0.216738371338E+04    0.31517E+00   -0.76385E+00  5840   0.524E+00    0.117E+01
DAV:   8    -0.216639742538E+04    0.98629E+00   -0.16261E+00  5192   0.348E+00    0.699E+00
DAV:   9    -0.216611067622E+04    0.28675E+00   -0.54429E-01  5872   0.241E+00    0.562E+00
DAV:  10    -0.216596891840E+04    0.14176E+00   -0.41537E-01  5712   0.190E+00    0.399E+00
DAV:  11    -0.216596291306E+04    0.60053E-02   -0.37143E-01  6504   0.235E+00    0.496E+00
DAV:  12    -0.216593165310E+04    0.31260E-01   -0.64321E-01  5328   0.134E+00    0.369E+00
DAV:  13    -0.216588744211E+04    0.44211E-01   -0.57402E-01  5104   0.175E+00    0.189E+00
DAV:  14    -0.216590436753E+04   -0.16925E-01   -0.12205E-01  4688   0.603E-01    0.182E+00
DAV:  15    -0.216588473708E+04    0.19630E-01   -0.79836E-02  5016   0.507E-01    0.109E+00
DAV:  16    -0.216588343949E+04    0.12976E-02   -0.19554E-02  5216   0.414E-01    0.776E-01
DAV:  17    -0.216587999598E+04    0.34435E-02   -0.12274E-02  5216   0.249E-01    0.286E-01
DAV:  18    -0.216588113606E+04   -0.11401E-02   -0.34759E-03  4768   0.107E-01    0.238E-01
DAV:  19    -0.216588092989E+04    0.20617E-03   -0.67774E-04  5280   0.621E-02    0.162E-01
DAV:  20    -0.216588103133E+04   -0.10143E-03   -0.39549E-04  5448   0.430E-02    0.938E-02
DAV:  21    -0.216588118507E+04   -0.15374E-03   -0.16168E-04  5384   0.337E-02    0.734E-02
DAV:  22    -0.216588121293E+04   -0.27865E-04   -0.14611E-04  5016   0.283E-02    0.403E-02
DAV:  23    -0.216588126350E+04   -0.50565E-04   -0.37899E-05  4040   0.113E-02    0.226E-02
DAV:  24    -0.216588130126E+04   -0.37764E-04   -0.89253E-06  2728   0.700E-03    0.157E-02
DAV:  25    -0.216588133616E+04   -0.34893E-04   -0.41424E-06  2752   0.504E-03    0.126E-02
DAV:  26    -0.216588137364E+04   -0.37483E-04   -0.27108E-06  2792   0.320E-03    0.106E-02
DAV:  27    -0.216588139047E+04   -0.16831E-04   -0.22247E-06  2760   0.327E-03    0.955E-03
DAV:  28    -0.216588140746E+04   -0.16989E-04   -0.11481E-06  2672   0.200E-03    0.855E-03
DAV:  29    -0.216588142652E+04   -0.19065E-04   -0.96083E-07  2720   0.164E-03    0.830E-03
DAV:  30    -0.216588144028E+04   -0.13756E-04   -0.88194E-07  2712   0.129E-03    0.825E-03
DAV:  31    -0.216588144844E+04   -0.81543E-05   -0.55662E-07  2712   0.106E-03    0.823E-03
DAV:  32    -0.216588145348E+04   -0.50492E-05   -0.38645E-07  2672   0.850E-04    0.816E-03
DAV:  33    -0.216588145608E+04   -0.25928E-05   -0.24465E-07  2728   0.654E-04
  18 F= -.22261700E+04 E0= -.22261157E+04  d E =-.155839E+02
 curvature:  -0.88 expect dE=-0.187E+02 dE for cont linesearch -0.316E-01
 trial: gam= 0.61330 g(F)=  0.213E+02 g(S)=  0.000E+00 ort = 0.155E+01 (trialstep = 0.374E+00)
 search vector abs. value=  0.483E+02
 bond charge predicted
       N       E                     dE             d eps       ncg     rms          rms(c)
DAV:   1    -0.217203352697E+04   -0.61521E+01   -0.79858E+02  4064   0.380E+01    0.239E+01
DAV:   2    -0.217869191948E+04   -0.66584E+01   -0.18253E+01  5304   0.790E+00    0.262E+01
DAV:   3    -0.217498526611E+04    0.37067E+01   -0.30322E+00  5176   0.775E+00    0.205E+01
DAV:   4    -0.217761760326E+04   -0.26323E+01   -0.10385E+01  6248   0.769E+00    0.243E+01
DAV:   5    -0.217456957245E+04    0.30480E+01   -0.29836E+00  5872   0.623E+00    0.168E+01
DAV:   6    -0.217314258388E+04    0.14270E+01   -0.16627E+00  5608   0.392E+00    0.772E+00
DAV:   7    -0.217308655446E+04    0.56029E-01   -0.84984E-01  5736   0.271E+00    0.575E+00
DAV:   8    -0.217303575027E+04    0.50804E-01   -0.58637E-01  5520   0.171E+00    0.526E+00
DAV:   9    -0.217286970570E+04    0.16604E+00   -0.15710E-01  5296   0.119E+00    0.224E+00
DAV:  10    -0.217289658797E+04   -0.26882E-01   -0.11031E-01  5344   0.710E-01    0.175E+00
DAV:  11    -0.217290450427E+04   -0.79163E-02   -0.11057E-01  5456   0.714E-01    0.142E+00
DAV:  12    -0.217288969925E+04    0.14805E-01   -0.37047E-02  5280   0.562E-01    0.851E-01
DAV:  13    -0.217288941743E+04    0.28182E-03   -0.12919E-02  5208   0.278E-01    0.687E-01
DAV:  14    -0.217288760519E+04    0.18122E-02   -0.79208E-03  5224   0.203E-01    0.286E-01
DAV:  15    -0.217288839043E+04   -0.78524E-03   -0.53531E-03  4904   0.165E-01    0.241E-01
DAV:  16    -0.217288796176E+04    0.42867E-03   -0.21604E-03  4992   0.117E-01    0.113E-01
DAV:  17    -0.217288796701E+04   -0.52566E-05   -0.59006E-04  4744   0.569E-02    0.551E-02
DAV:  18    -0.217288802067E+04   -0.53660E-04   -0.37978E-04  4848   0.419E-02    0.431E-02
DAV:  19    -0.217288801567E+04    0.50048E-05   -0.24420E-04  4424   0.316E-02    0.305E-02
DAV:  20    -0.217288802633E+04   -0.10661E-04   -0.36931E-05  3344   0.126E-02    0.202E-02
DAV:  21    -0.217288804036E+04   -0.14030E-04   -0.75630E-06  2704   0.656E-03    0.137E-02
DAV:  22    -0.217288805184E+04   -0.11478E-04   -0.28587E-06  2704   0.444E-03    0.104E-02
DAV:  23    -0.217288805955E+04   -0.77161E-05   -0.15119E-06  2704   0.276E-03    0.921E-03
DAV:  24    -0.217288806434E+04   -0.47830E-05   -0.81381E-07  2680   0.174E-03
  19 F= -.22331826E+04 E0= -.22331375E+04  d E =-.701268E+01
 trial-energy change:   -7.012682  1 .order   -6.957890   -8.348224   -5.567555
 step:   0.9512(harm=  1.1243)  dis= 0.14949  next Energy= -2237.669296 (dE=-0.115E+02)
 bond charge predicted
       N       E                     dE             d eps       ncg     rms          rms(c)
DAV:   1    -0.217484278436E+04   -0.19547E+01   -0.18894E+03  4064   0.588E+01    0.378E+01
DAV:   2    -0.218574642166E+04   -0.10904E+02   -0.49191E+01  5280   0.115E+01    0.353E+01
DAV:   3    -0.218541601046E+04    0.33041E+00   -0.99888E+00  5448   0.118E+01    0.308E+01
DAV:   4    -0.218432907127E+04    0.10869E+01   -0.65746E+00  5920   0.982E+00    0.285E+01
DAV:   5    -0.217892059604E+04    0.54085E+01   -0.59986E+00  6112   0.986E+00    0.131E+01
DAV:   6    -0.217824187989E+04    0.67872E+00   -0.22547E+00  5296   0.422E+00    0.882E+00
DAV:   7    -0.217800489510E+04    0.23698E+00   -0.10969E+00  5496   0.299E+00    0.798E+00
DAV:   8    -0.217776247978E+04    0.24242E+00   -0.61904E-01  5488   0.184E+00    0.543E+00
DAV:   9    -0.217767086984E+04    0.91610E-01   -0.30368E-01  5968   0.159E+00    0.386E+00
DAV:  10    -0.217756344338E+04    0.10743E+00   -0.10634E-01  6352   0.161E+00    0.187E+00
DAV:  11    -0.217760281423E+04   -0.39371E-01   -0.40569E-01  6184   0.140E+00    0.229E+00
DAV:  12    -0.217758182552E+04    0.20989E-01   -0.56737E-01  4952   0.121E+00    0.151E+00
DAV:  13    -0.217756735552E+04    0.14470E-01   -0.58218E-02  5248   0.743E-01    0.103E+00
DAV:  14    -0.217756437996E+04    0.29756E-02   -0.18359E-02  4824   0.342E-01    0.701E-01
DAV:  15    -0.217756522943E+04   -0.84947E-03   -0.16653E-02  5584   0.331E-01    0.581E-01
DAV:  16    -0.217756442104E+04    0.80840E-03   -0.87792E-03  5000   0.221E-01    0.391E-01
DAV:  17    -0.217756403431E+04    0.38673E-03   -0.19883E-03  5208   0.101E-01    0.290E-01
DAV:  18    -0.217756298696E+04    0.10473E-02   -0.43937E-03  5320   0.117E-01    0.142E-01
DAV:  19    -0.217756318525E+04   -0.19828E-03   -0.62891E-04  5424   0.564E-02    0.851E-02
DAV:  20    -0.217756326164E+04   -0.76392E-04   -0.14848E-04  4800   0.337E-02    0.521E-02
DAV:  21    -0.217756328655E+04   -0.24907E-04   -0.73007E-05  5040   0.196E-02    0.381E-02
DAV:  22    -0.217756331739E+04   -0.30840E-04   -0.37223E-05  4360   0.130E-02    0.188E-02
DAV:  23    -0.217756334991E+04   -0.32520E-04   -0.93903E-06  2768   0.753E-03    0.141E-02
DAV:  24    -0.217756337496E+04   -0.25052E-04   -0.45182E-06  2704   0.463E-03    0.109E-02
DAV:  25    -0.217756339100E+04   -0.16043E-04   -0.20365E-06  2752   0.311E-03    0.913E-03
DAV:  26    -0.217756340618E+04   -0.15173E-04   -0.14425E-06  2672   0.204E-03    0.894E-03
DAV:  27    -0.217756341540E+04   -0.92253E-05   -0.78491E-07  2768   0.152E-03    0.862E-03
DAV:  28    -0.217756342240E+04   -0.69982E-05   -0.61695E-07  2680   0.107E-03    0.851E-03
DAV:  29    -0.217756343024E+04   -0.78374E-05   -0.67055E-07  2648   0.113E-03    0.855E-03
DAV:  30    -0.217756343239E+04   -0.21516E-05   -0.39020E-07  2760   0.862E-04
  20 F= -.22378948E+04 E0= -.22378559E+04  d E =-.117249E+02
 curvature:  -1.15 expect dE=-0.212E+02 dE for cont linesearch -0.399E-01
 trial: gam= 0.58629 g(F)=  0.184E+02 g(S)=  0.000E+00 ort = 0.129E+01 (trialstep = 0.490E+00)
 search vector abs. value=  0.365E+02
 bond charge predicted
       N       E                     dE             d eps       ncg     rms          rms(c)
DAV:   1    -0.218405390664E+04   -0.64905E+01   -0.10153E+03  4032   0.419E+01    0.251E+01
DAV:   2    -0.218748250974E+04   -0.34286E+01   -0.22376E+01  5128   0.736E+00    0.209E+01
DAV:   3    -0.219521240895E+04   -0.77299E+01   -0.11825E+01  5752   0.107E+01    0.306E+01
DAV:   4    -0.218808366678E+04    0.71287E+01   -0.62728E+00  6328   0.838E+00    0.181E+01
DAV:   5    -0.218658008198E+04    0.15036E+01   -0.29360E+00  5632   0.487E+00    0.121E+01
DAV:   6    -0.218602078593E+04    0.55930E+00   -0.13197E+00  5576   0.316E+00    0.892E+00
DAV:   7    -0.218568562795E+04    0.33516E+00   -0.11702E+00  5856   0.225E+00    0.447E+00
DAV:   8    -0.218560010992E+04    0.85518E-01   -0.29659E-01  6144   0.176E+00    0.268E+00
DAV:   9    -0.218555032293E+04    0.49787E-01   -0.15394E-01  6216   0.129E+00    0.187E+00
DAV:  10    -0.218551044306E+04    0.39880E-01   -0.10264E-01  6080   0.115E+00    0.125E+00
DAV:  11    -0.218549945757E+04    0.10985E-01   -0.11746E-01  6232   0.104E+00    0.129E+00
DAV:  12    -0.218550855947E+04   -0.91019E-02   -0.29374E-01  4728   0.105E+00    0.958E-01
DAV:  13    -0.218550727023E+04    0.12892E-02   -0.21210E-02  5136   0.231E-01    0.694E-01
DAV:  14    -0.218549488990E+04    0.12380E-01   -0.51044E-03  5896   0.470E-01    0.684E-01
DAV:  15    -0.218548922381E+04    0.56661E-02   -0.84750E-03  6080   0.282E-01    0.356E-01
DAV:  16    -0.218549013802E+04   -0.91421E-03   -0.98959E-03  5496   0.179E-01    0.266E-01
DAV:  17    -0.218548939322E+04    0.74480E-03   -0.81838E-03  4848   0.183E-01    0.113E-01
DAV:  18    -0.218548945474E+04   -0.61515E-04   -0.16408E-03  4912   0.767E-02    0.938E-02
DAV:  19    -0.218548941381E+04    0.40932E-04   -0.49020E-04  5368   0.453E-02    0.512E-02
DAV:  20    -0.218548946733E+04   -0.53520E-04   -0.16551E-04  4664   0.278E-02    0.371E-02
DAV:  21    -0.218548947011E+04   -0.27835E-05   -0.77896E-05  3544   0.205E-02    0.211E-02
DAV:  22    -0.218548948032E+04   -0.10208E-04   -0.23491E-05  2816   0.115E-02    0.167E-02
DAV:  23    -0.218548948689E+04   -0.65735E-05   -0.21021E-05  2664   0.964E-03    0.105E-02
DAV:  24    -0.218548949546E+04   -0.85672E-05   -0.37148E-06  2744   0.354E-03    0.932E-03
DAV:  25    -0.218548950214E+04   -0.66805E-05   -0.18524E-06  2696   0.304E-03    0.942E-03
DAV:  26    -0.218548950460E+04   -0.24592E-05   -0.16398E-06  2768   0.280E-03
  21 F= -.22458465E+04 E0= -.22458082E+04  d E =-.795163E+01
 trial-energy change:   -7.951629  1 .order   -7.865131   -9.401557   -6.328705
 step:   1.2029(harm=  1.4986)  dis= 0.17453  next Energy= -2250.719849 (dE=-0.128E+02)
 bond charge predicted
       N       E                     dE             d eps       ncg     rms          rms(c)
DAV:   1    -0.218688351401E+04   -0.13940E+01   -0.21729E+03  4032   0.616E+01    0.366E+01
DAV:   2    -0.220099313938E+04   -0.14110E+02   -0.54741E+01  5216   0.121E+01    0.392E+01
DAV:   3    -0.220025820939E+04    0.73493E+00   -0.14562E+01  5448   0.188E+01    0.311E+01
DAV:   4    -0.220011737069E+04    0.14084E+00   -0.16658E+01  6560   0.135E+01    0.286E+01
DAV:   5    -0.219390340461E+04    0.62140E+01   -0.94040E+00  5152   0.741E+00    0.139E+01
DAV:   6    -0.219292881170E+04    0.97459E+00   -0.29076E+00  5720   0.466E+00    0.128E+01
DAV:   7    -0.219227155929E+04    0.65725E+00   -0.11805E+00  5464   0.259E+00    0.744E+00
DAV:   8    -0.219191127634E+04    0.36028E+00   -0.67070E-01  5976   0.272E+00    0.764E+00
DAV:   9    -0.219154469683E+04    0.36658E+00   -0.11363E+00  6016   0.210E+00    0.597E+00
DAV:  10    -0.219119946818E+04    0.34523E+00   -0.17264E-01  6320   0.228E+00    0.357E+00
DAV:  11    -0.219094562466E+04    0.25384E+00   -0.19573E-01  6392   0.243E+00    0.276E+00
DAV:  12    -0.219083998011E+04    0.10564E+00   -0.27869E-01  5728   0.170E+00    0.210E+00
DAV:  13    -0.219074713587E+04    0.92844E-01   -0.72422E-02  6048   0.159E+00    0.178E+00
DAV:  14    -0.219066867404E+04    0.78462E-01   -0.72129E-02  5792   0.135E+00    0.106E+00
DAV:  15    -0.219062597093E+04    0.42703E-01   -0.56185E-02  5768   0.129E+00    0.705E-01
DAV:  16    -0.219064756498E+04   -0.21594E-01   -0.15660E-01  4720   0.617E-01    0.130E+00
DAV:  17    -0.219063653406E+04    0.11031E-01   -0.83271E-02  4480   0.499E-01    0.813E-01
DAV:  18    -0.219064591776E+04   -0.93837E-02   -0.35453E-02  4768   0.412E-01    0.112E+00
DAV:  19    -0.219066214862E+04   -0.16231E-01   -0.22339E-02  4504   0.208E-01    0.166E+00
DAV:  20    -0.219064091248E+04    0.21236E-01   -0.91966E-03  4360   0.202E-01    0.115E+00
DAV:  21    -0.219063711467E+04    0.37978E-02   -0.17633E-01  6800   0.758E-01    0.757E-01
DAV:  22    -0.219063752185E+04   -0.40718E-03   -0.24417E-02  4424   0.279E-01    0.714E-01
DAV:  23    -0.219064061979E+04   -0.30979E-02   -0.21249E-02  6720   0.345E-01    0.651E-01
DAV:  24    -0.219064202659E+04   -0.14068E-02   -0.87676E-03  4512   0.111E-01    0.762E-01
DAV:  25    -0.219063965516E+04    0.23714E-02   -0.21546E-03  5368   0.599E-02    0.689E-01
DAV:  26    -0.219063571583E+04    0.39393E-02   -0.25772E-03  5624   0.106E-01    0.410E-01
DAV:  27    -0.219063512283E+04    0.59300E-03   -0.12217E-03  5680   0.678E-02    0.220E-01
DAV:  28    -0.219063534715E+04   -0.22432E-03   -0.37553E-04  4968   0.284E-02    0.159E-01
DAV:  29    -0.219063528907E+04    0.58077E-04   -0.52696E-05  2800   0.183E-02    0.126E-01
DAV:  30    -0.219063517982E+04    0.10925E-03   -0.70025E-05  3352   0.181E-02    0.818E-02
DAV:  31    -0.219063513738E+04    0.42443E-04   -0.76096E-05  3520   0.192E-02    0.432E-02
DAV:  32    -0.219063514829E+04   -0.10918E-04   -0.40101E-05  4176   0.935E-03    0.277E-02
DAV:  33    -0.219063515093E+04   -0.26344E-05   -0.56727E-06  2752   0.391E-03
  22 F= -.22510000E+04 E0= -.22509582E+04  d E =-.131052E+02
 curvature:  -1.30 expect dE=-0.188E+02 dE for cont linesearch -0.442E-01
 trial: gam= 0.64089 g(F)=  0.144E+02 g(S)=  0.000E+00 ort = 0.111E+01 (trialstep = 0.632E+00)
 search vector abs. value=  0.308E+02
 bond charge predicted
       N       E                     dE             d eps       ncg     rms          rms(c)
DAV:   1    -0.219572897946E+04   -0.50938E+01   -0.14465E+03  4032   0.497E+01    0.299E+01
DAV:   2    -0.220522191618E+04   -0.94929E+01   -0.38641E+01  5584   0.983E+00    0.341E+01
DAV:   3    -0.220104905815E+04    0.41729E+01   -0.87784E+00  5768   0.973E+00    0.261E+01
DAV:   4    -0.220181176019E+04   -0.76270E+00   -0.35093E+00  6000   0.626E+00    0.222E+01
DAV:   5    -0.220197109887E+04   -0.15934E+00   -0.83106E+00  6096   0.663E+00    0.230E+01
DAV:   6    -0.219884592144E+04    0.31252E+01   -0.22701E+00  5992   0.570E+00    0.121E+01
DAV:   7    -0.219794235626E+04    0.90357E+00   -0.17911E+00  5832   0.331E+00    0.529E+00
DAV:   8    -0.219809421304E+04   -0.15186E+00   -0.81618E-01  5336   0.157E+00    0.590E+00
DAV:   9    -0.219791934187E+04    0.17487E+00   -0.15475E+00  5448   0.207E+00    0.327E+00
DAV:  10    -0.219798155964E+04   -0.62218E-01   -0.17703E-01  5368   0.940E-01    0.249E+00
DAV:  11    -0.219795205953E+04    0.29500E-01   -0.85568E-02  5504   0.826E-01    0.184E+00
DAV:  12    -0.219796273088E+04   -0.10671E-01   -0.57748E-02  5192   0.568E-01    0.142E+00
DAV:  13    -0.219793783853E+04    0.24892E-01   -0.24094E-02  5544   0.522E-01    0.695E-01
DAV:  14    -0.219793280345E+04    0.50351E-02   -0.91716E-03  6424   0.309E-01    0.372E-01
DAV:  15    -0.219793184554E+04    0.95791E-03   -0.92257E-03  6448   0.246E-01    0.192E-01
DAV:  16    -0.219793267044E+04   -0.82490E-03   -0.41717E-03  4576   0.105E-01    0.177E-01
DAV:  17    -0.219793265393E+04    0.16508E-04   -0.50813E-04  4672   0.443E-02    0.123E-01
DAV:  18    -0.219793271501E+04   -0.61082E-04   -0.70631E-04  5840   0.607E-02    0.839E-02
DAV:  19    -0.219793276261E+04   -0.47599E-04   -0.51651E-04  5408   0.551E-02    0.584E-02
DAV:  20    -0.219793274251E+04    0.20104E-04   -0.30471E-04  4544   0.409E-02    0.353E-02
DAV:  21    -0.219793276932E+04   -0.26810E-04   -0.49877E-05  4152   0.162E-02    0.211E-02
DAV:  22    -0.219793279574E+04   -0.26424E-04   -0.28918E-05  3976   0.931E-03    0.162E-02
DAV:  23    -0.219793281858E+04   -0.22832E-04   -0.38183E-06  2760   0.420E-03    0.117E-02
DAV:  24    -0.219793283127E+04   -0.12696E-04   -0.43938E-06  2760   0.468E-03    0.843E-03
[...]
DAV:   9    -0.221838830545E+04    0.26017E+00   -0.67474E-01  5520   0.138E+00    0.252E+00
DAV:  10    -0.221841374978E+04   -0.25444E-01   -0.93864E-02  5144   0.794E-01    0.144E+00
DAV:  11    -0.221840675861E+04    0.69912E-02   -0.46175E-02  5760   0.695E-01    0.136E+00
DAV:  12    -0.221839689060E+04    0.98680E-02   -0.28994E-02  5440   0.530E-01    0.726E-01
DAV:  13    -0.221839594853E+04    0.94207E-03   -0.15151E-02  5096   0.328E-01    0.412E-01
DAV:  14    -0.221839667674E+04   -0.72821E-03   -0.69900E-03  4936   0.173E-01    0.317E-01
DAV:  15    -0.221839651193E+04    0.16481E-03   -0.18277E-03  5024   0.115E-01    0.226E-01
DAV:  16    -0.221839653503E+04   -0.23105E-04   -0.12451E-03  4800   0.946E-02    0.133E-01
DAV:  17    -0.221839660665E+04   -0.71612E-04   -0.66756E-04  5176   0.824E-02    0.641E-02
DAV:  18    -0.221839669913E+04   -0.92487E-04   -0.29518E-04  5256   0.285E-02    0.358E-02
DAV:  19    -0.221839682554E+04   -0.12641E-03   -0.36203E-05  4184   0.992E-03    0.245E-02
DAV:  20    -0.221839699173E+04   -0.16619E-03   -0.13743E-05  3112   0.750E-03    0.142E-02
DAV:  21    -0.221839706057E+04   -0.68839E-04   -0.53145E-06  2800   0.673E-03    0.112E-02
DAV:  22    -0.221839711590E+04   -0.55325E-04   -0.38230E-06  2728   0.372E-03    0.973E-03
DAV:  23    -0.221839718710E+04   -0.71207E-04   -0.37778E-06  2784   0.302E-03    0.918E-03
DAV:  24    -0.221839724260E+04   -0.55502E-04   -0.38360E-06  2776   0.263E-03    0.901E-03
DAV:  25    -0.221839726512E+04   -0.22519E-04   -0.19709E-06  2760   0.214E-03    0.891E-03
DAV:  26    -0.221839728142E+04   -0.16293E-04   -0.14789E-06  2736   0.166E-03    0.870E-03
DAV:  27    -0.221839729360E+04   -0.12188E-04   -0.15013E-06  2760   0.144E-03    0.868E-03
DAV:  28    -0.221839729542E+04   -0.18143E-05   -0.71908E-07  2792   0.108E-03
  33 F= -.22788966E+04 E0= -.22788585E+04  d E =-.496867E+01
 curvature:  -3.44 expect dE=-0.163E+02 dE for cont linesearch -0.149E-01
 trial: gam= 0.90800 g(F)=  0.474E+01 g(S)=  0.000E+00 ort = 0.239E+00 (trialstep = 0.668E+00)
 search vector abs. value=  0.160E+02
 bond charge predicted
       N       E                     dE             d eps       ncg     rms          rms(c)
DAV:   1    -0.221956434889E+04   -0.11671E+01   -0.82925E+02  4032   0.371E+01    0.183E+01
DAV:   2    -0.222284777045E+04   -0.32834E+01   -0.18816E+01  5472   0.652E+00    0.196E+01
DAV:   3    -0.222269441057E+04    0.15336E+00   -0.44447E+00  5832   0.586E+00    0.185E+01
DAV:   4    -0.222241314209E+04    0.28127E+00   -0.35776E+00  6464   0.488E+00    0.144E+01
DAV:   5    -0.222118767009E+04    0.12255E+01   -0.20653E+00  5928   0.383E+00    0.874E+00
DAV:   6    -0.222113582300E+04    0.51847E-01   -0.15165E+00  5616   0.222E+00    0.976E+00
DAV:   7    -0.222082329621E+04    0.31253E+00   -0.10560E+00  5616   0.158E+00    0.420E+00
DAV:   8    -0.222080428455E+04    0.19012E-01   -0.11786E-01  5224   0.858E-01    0.172E+00
DAV:   9    -0.222080376123E+04    0.52333E-03   -0.35969E-02  5560   0.504E-01    0.138E+00
DAV:  10    -0.222079892494E+04    0.48363E-02   -0.20140E-02  5584   0.356E-01    0.750E-01
DAV:  11    -0.222080123110E+04   -0.23062E-02   -0.15688E-02  5576   0.269E-01    0.507E-01
DAV:  12    -0.222080195911E+04   -0.72801E-03   -0.13769E-02  5664   0.203E-01    0.470E-01
DAV:  13    -0.222080068582E+04    0.12733E-02   -0.36366E-03  5440   0.136E-01    0.200E-01
DAV:  14    -0.222080079904E+04   -0.11322E-03   -0.60458E-04  5504   0.734E-02    0.108E-01
DAV:  15    -0.222080090180E+04   -0.10275E-03   -0.26976E-04  5504   0.432E-02    0.577E-02
DAV:  16    -0.222080099345E+04   -0.91654E-04   -0.11124E-04  5480   0.222E-02    0.417E-02
DAV:  17    -0.222080105245E+04   -0.59000E-04   -0.33618E-05  3752   0.121E-02    0.185E-02
DAV:  18    -0.222080111921E+04   -0.66764E-04   -0.97134E-06  2800   0.687E-03    0.127E-02
DAV:  19    -0.222080116478E+04   -0.45568E-04   -0.51962E-06  2824   0.522E-03    0.111E-02
DAV:  20    -0.222080119026E+04   -0.25477E-04   -0.28514E-06  2760   0.351E-03    0.979E-03
DAV:  21    -0.222080122515E+04   -0.34889E-04   -0.27634E-06  2728   0.312E-03    0.932E-03
DAV:  22    -0.222080125869E+04   -0.33543E-04   -0.33549E-06  2760   0.284E-03    0.923E-03
DAV:  23    -0.222080127459E+04   -0.15902E-04   -0.21773E-06  2760   0.230E-03    0.910E-03
DAV:  24    -0.222080128092E+04   -0.63224E-05   -0.11882E-06  2736   0.157E-03    0.891E-03
DAV:  25    -0.222080129016E+04   -0.92470E-05   -0.13425E-06  2688   0.131E-03    0.882E-03
DAV:  26    -0.222080129316E+04   -0.29927E-05   -0.74513E-07  2744   0.109E-03
  34 F= -.22812660E+04 E0= -.22812320E+04  d E =-.236943E+01
 trial-energy change:   -2.369433  1 .order   -2.360280   -3.313850   -1.406709
 step:   1.1376(harm=  1.1606)  dis= 0.13384  next Energy= -2281.763752 (dE=-0.287E+01)
 bond charge predicted
       N       E                     dE             d eps       ncg     rms          rms(c)
DAV:   1    -0.222078876087E+04    0.12529E-01   -0.41061E+02  4032   0.258E+01    0.133E+01
DAV:   2    -0.222252457776E+04   -0.17358E+01   -0.95459E+00  5568   0.452E+00    0.149E+01
DAV:   3    -0.222273629452E+04   -0.21172E+00   -0.39254E+00  5976   0.457E+00    0.150E+01
DAV:   4    -0.222254260865E+04    0.19369E+00   -0.29817E+00  6168   0.370E+00    0.142E+01
DAV:   5    -0.222156857205E+04    0.97404E+00   -0.17020E+00  5840   0.280E+00    0.752E+00
DAV:   6    -0.222152436369E+04    0.44208E-01   -0.80622E-01  5640   0.170E+00    0.654E+00
DAV:   7    -0.222136252476E+04    0.16184E+00   -0.51324E-01  5584   0.138E+00    0.346E+00
DAV:   8    -0.222135398996E+04    0.85348E-02   -0.72870E-02  5064   0.611E-01    0.188E+00
DAV:   9    -0.222134342242E+04    0.10568E-01   -0.28559E-02  5712   0.444E-01    0.129E+00
DAV:  10    -0.222134180612E+04    0.16163E-02   -0.10147E-02  5328   0.257E-01    0.583E-01
DAV:  11    -0.222134476554E+04   -0.29594E-02   -0.55557E-03  5248   0.197E-01    0.373E-01
DAV:  12    -0.222134540388E+04   -0.63833E-03   -0.44411E-03  5504   0.140E-01    0.293E-01
DAV:  13    -0.222134487262E+04    0.53125E-03   -0.14722E-03  4992   0.900E-02    0.115E-01
DAV:  14    -0.222134505512E+04   -0.18249E-03   -0.27038E-04  5128   0.407E-02    0.800E-02
DAV:  15    -0.222134510500E+04   -0.49887E-04   -0.15554E-04  5384   0.276E-02    0.438E-02
DAV:  16    -0.222134515766E+04   -0.52654E-04   -0.80203E-05  4816   0.184E-02    0.279E-02
DAV:  17    -0.222134519015E+04   -0.32489E-04   -0.20475E-05  2856   0.892E-03    0.145E-02
DAV:  18    -0.222134520970E+04   -0.19557E-04   -0.54351E-06  2736   0.446E-03    0.110E-02
DAV:  19    -0.222134523658E+04   -0.26877E-04   -0.32908E-06  2688   0.384E-03    0.977E-03
DAV:  20    -0.222134525773E+04   -0.21151E-04   -0.24104E-06  2712   0.251E-03    0.914E-03
DAV:  21    -0.222134527210E+04   -0.14364E-04   -0.14232E-06  2728   0.206E-03    0.894E-03
DAV:  22    -0.222134528755E+04   -0.15452E-04   -0.15823E-06  2672   0.173E-03    0.881E-03
DAV:  23    -0.222134529700E+04   -0.94507E-05   -0.13411E-06  2728   0.151E-03    0.875E-03
DAV:  24    -0.222134529898E+04   -0.19831E-05   -0.64050E-07  2768   0.108E-03
  35 F= -.22817829E+04 E0= -.22817464E+04  d E =-.288633E+01
 curvature:  -1.87 expect dE=-0.813E+01 dE for cont linesearch -0.165E-02
 trial: gam= 0.86572 g(F)=  0.435E+01 g(S)=  0.000E+00 ort = 0.119E+00 (trialstep = 0.737E+00)
 search vector abs. value=  0.166E+02
 bond charge predicted
       N       E                     dE             d eps       ncg     rms          rms(c)
DAV:   1    -0.222221262843E+04   -0.86733E+00   -0.10447E+03  4032   0.408E+01    0.170E+01
DAV:   2    -0.223113928092E+04   -0.89267E+01   -0.38584E+01  5528   0.930E+00    0.261E+01
DAV:   3    -0.222390542751E+04    0.72339E+01   -0.40773E+00  5120   0.591E+00    0.134E+01
DAV:   4    -0.222564281117E+04   -0.17374E+01   -0.42262E+00  6192   0.387E+00    0.195E+01
DAV:   5    -0.222411486430E+04    0.15279E+01   -0.21009E+00  5872   0.378E+00    0.106E+01
DAV:   6    -0.222446550306E+04   -0.35064E+00   -0.13794E+00  5768   0.284E+00    0.102E+01
DAV:   7    -0.222384900921E+04    0.61649E+00   -0.11870E+00  5888   0.225E+00    0.410E+00
DAV:   8    -0.222383252978E+04    0.16479E-01   -0.30803E-01  5864   0.139E+00    0.211E+00
DAV:   9    -0.222383302222E+04   -0.49245E-03   -0.13512E-01  5384   0.759E-01    0.201E+00
DAV:  10    -0.222381765759E+04    0.15365E-01   -0.95615E-02  5328   0.454E-01    0.951E-01
DAV:  11    -0.222382384243E+04   -0.61848E-02   -0.22351E-02  5248   0.320E-01    0.930E-01
DAV:  12    -0.222381882263E+04    0.50198E-02   -0.11858E-02  5480   0.213E-01    0.397E-01
DAV:  13    -0.222382064179E+04   -0.18192E-02   -0.38461E-03  5480   0.134E-01    0.299E-01
DAV:  14    -0.222382024693E+04    0.39487E-03   -0.22737E-03  5632   0.100E-01    0.234E-01
DAV:  15    -0.222382014809E+04    0.98837E-04   -0.66590E-04  5136   0.468E-02    0.790E-02
DAV:  16    -0.222382027253E+04   -0.12444E-03   -0.14724E-04  5136   0.302E-02    0.640E-02
DAV:  17    -0.222382032293E+04   -0.50398E-04   -0.78173E-05  4376   0.162E-02    0.209E-02
DAV:  18    -0.222382036503E+04   -0.42098E-04   -0.13895E-05  2936   0.845E-03    0.159E-02
DAV:  19    -0.222382039934E+04   -0.34306E-04   -0.60064E-06  2728   0.592E-03    0.112E-02
DAV:  20    -0.222382042875E+04   -0.29410E-04   -0.35495E-06  2680   0.379E-03    0.977E-03
DAV:  21    -0.222382045324E+04   -0.24493E-04   -0.22110E-06  2696   0.276E-03    0.905E-03
DAV:  22    -0.222382047581E+04   -0.22568E-04   -0.19459E-06  2688   0.218E-03    0.891E-03
DAV:  23    -0.222382049648E+04   -0.20673E-04   -0.19173E-06  2688   0.211E-03    0.879E-03
DAV:  24    -0.222382050672E+04   -0.10241E-04   -0.13971E-06  2720   0.174E-03    0.869E-03
DAV:  25    -0.222382051099E+04   -0.42655E-05   -0.84510E-07  2720   0.117E-03
  36 F= -.22842145E+04 E0= -.22841689E+04  d E =-.243157E+01
 trial-energy change:   -2.431570  1 .order   -2.464331   -3.280023   -1.648640
 step:   1.7908(harm=  1.4825)  dis= 0.20332  next Energy= -2285.296627 (dE=-0.351E+01)
 bond charge predicted
       N       E                     dE             d eps       ncg     rms          rms(c)
DAV:   1    -0.222040268620E+04    0.34178E+01   -0.21222E+03  4032   0.588E+01    0.238E+01
DAV:   2    -0.223174407106E+04   -0.11341E+02   -0.64994E+01  5448   0.117E+01    0.299E+01
DAV:   3    -0.222581887245E+04    0.59252E+01   -0.64327E+00  5528   0.788E+00    0.194E+01
DAV:   4    -0.222662470902E+04   -0.80584E+00   -0.24706E+00  5768   0.490E+00    0.180E+01
DAV:   5    -0.222598348584E+04    0.64122E+00   -0.28811E+00  6200   0.488E+00    0.156E+01
DAV:   6    -0.222616993060E+04   -0.18644E+00   -0.40553E+00  5792   0.382E+00    0.157E+01
DAV:   7    -0.222492205754E+04    0.12479E+01   -0.27176E+00  6128   0.382E+00    0.582E+00
DAV:   8    -0.222480465260E+04    0.11740E+00   -0.46318E-01  5264   0.193E+00    0.353E+00
DAV:   9    -0.222474307117E+04    0.61581E-01   -0.19277E-01  5704   0.115E+00    0.261E+00
DAV:  10    -0.222471571658E+04    0.27355E-01   -0.75542E-02  5496   0.685E-01    0.175E+00
DAV:  11    -0.222469666819E+04    0.19048E-01   -0.32447E-02  5704   0.491E-01    0.641E-01
DAV:  12    -0.222470247961E+04   -0.58114E-02   -0.10646E-02  5000   0.219E-01    0.506E-01
DAV:  13    -0.222470242301E+04    0.56603E-04   -0.23833E-03  5368   0.133E-01    0.355E-01
DAV:  14    -0.222470306941E+04   -0.64640E-03   -0.19858E-03  5536   0.127E-01    0.329E-01
DAV:  15    -0.222470261975E+04    0.44966E-03   -0.12079E-03  5272   0.115E-01    0.184E-01
DAV:  16    -0.222470257583E+04    0.43924E-04   -0.61551E-04  5536   0.659E-02    0.806E-02
DAV:  17    -0.222470265753E+04   -0.81704E-04   -0.17047E-04  5144   0.267E-02    0.436E-02
DAV:  18    -0.222470274626E+04   -0.88734E-04   -0.45048E-05  4504   0.167E-02    0.290E-02
DAV:  19    -0.222470282956E+04   -0.83298E-04   -0.17488E-05  3072   0.113E-02    0.198E-02
DAV:  20    -0.222470287613E+04   -0.46566E-04   -0.87826E-06  2768   0.765E-03    0.147E-02
DAV:  21    -0.222470291003E+04   -0.33906E-04   -0.56158E-06  2712   0.557E-03    0.114E-02
DAV:  22    -0.222470294360E+04   -0.33570E-04   -0.39535E-06  2712   0.332E-03    0.102E-02
DAV:  23    -0.222470298557E+04   -0.41964E-04   -0.33452E-06  2688   0.322E-03    0.100E-02
DAV:  24    -0.222470301191E+04   -0.26341E-04   -0.27892E-06  2728   0.250E-03    0.960E-03
DAV:  25    -0.222470302417E+04   -0.12259E-04   -0.16821E-06  2680   0.187E-03    0.953E-03
DAV:  26    -0.222470303538E+04   -0.11215E-04   -0.14704E-06  2704   0.137E-03    0.944E-03
DAV:  27    -0.222470304045E+04   -0.50629E-05   -0.96097E-07  2696   0.120E-03    0.940E-03
DAV:  28    -0.222470304145E+04   -0.10085E-05   -0.51081E-07  2720   0.867E-04
  37 F= -.22850313E+04 E0= -.22849978E+04  d E =-.324833E+01
 curvature:  -2.29 expect dE=-0.189E+02 dE for cont linesearch -0.844E-01
 ZBRENT: interpolating
 opt :   1.5179  next Energy= -2285.137900 (dE=-0.335E+01)
 bond charge predicted
       N       E                     dE             d eps       ncg     rms          rms(c)
DAV:   1    -0.222461731607E+04    0.85724E-01   -0.14205E+02  4032   0.150E+01    0.634E+00
DAV:   2    -0.222579860756E+04   -0.11813E+01   -0.41299E+00  5456   0.248E+00    0.143E+01
DAV:   3    -0.222467569838E+04    0.11229E+01   -0.72177E-01  5512   0.222E+00    0.570E+00
DAV:   4    -0.222491202347E+04   -0.23633E+00   -0.44685E-01  5248   0.138E+00    0.484E+00
DAV:   5    -0.222488261756E+04    0.29406E-01   -0.28000E-01  6432   0.137E+00    0.449E+00
DAV:   6    -0.222481021086E+04    0.72407E-01   -0.10635E-01  5864   0.100E+00    0.277E+00
DAV:   7    -0.222478790854E+04    0.22302E-01   -0.66842E-02  5816   0.713E-01    0.123E+00
DAV:   8    -0.222478602931E+04    0.18792E-02   -0.17524E-02  5512   0.359E-01    0.733E-01
DAV:   9    -0.222478385924E+04    0.21701E-02   -0.52953E-03  5488   0.193E-01    0.304E-01
DAV:  10    -0.222478434152E+04   -0.48228E-03   -0.21580E-03  5504   0.126E-01    0.263E-01
DAV:  11    -0.222478385486E+04    0.48666E-03   -0.68418E-04  5224   0.824E-02    0.136E-01
DAV:  12    -0.222478390606E+04   -0.51199E-04   -0.32768E-04  5152   0.527E-02    0.989E-02
DAV:  13    -0.222478387090E+04    0.35155E-04   -0.15228E-04  5040   0.353E-02    0.684E-02
DAV:  14    -0.222478386103E+04    0.98728E-05   -0.51647E-05  4448   0.210E-02    0.281E-02
DAV:  15    -0.222478387943E+04   -0.18400E-04   -0.16695E-05  3248   0.102E-02    0.152E-02
DAV:  16    -0.222478388960E+04   -0.10170E-04   -0.45927E-06  2696   0.572E-03    0.122E-02
DAV:  17    -0.222478389718E+04   -0.75776E-05   -0.25971E-06  2696   0.403E-03    0.105E-02
DAV:  18    -0.222478390540E+04   -0.82208E-05   -0.17417E-06  2664   0.300E-03    0.950E-03
DAV:  19    -0.222478391163E+04   -0.62353E-05   -0.12941E-06  2688   0.203E-03    0.929E-03
DAV:  20    -0.222478391565E+04   -0.40161E-05   -0.81091E-07  2728   0.149E-03
  38 F= -.22851293E+04 E0= -.22850938E+04  d E =-.334640E+01
 curvature:  -2.89 expect dE=-0.184E+02 dE for cont linesearch -0.626E-03
 trial: gam= 1.57626 g(F)=  0.635E+01 g(S)=  0.000E+00 ort = 0.599E-01 (trialstep = 0.310E+00)
 search vector abs. value=  0.477E+02
 bond charge predicted
       N       E                     dE             d eps       ncg     rms          rms(c)
DAV:   1    -0.222563105410E+04   -0.84714E+00   -0.53166E+02  4032   0.289E+01    0.105E+01
DAV:   2    -0.222687889952E+04   -0.12478E+01   -0.10402E+01  5392   0.444E+00    0.107E+01
DAV:   3    -0.222699673149E+04   -0.11783E+00   -0.11371E+00  5464   0.356E+00    0.107E+01
DAV:   4    -0.222680237215E+04    0.19436E+00   -0.73384E-01  5624   0.243E+00    0.885E+00
DAV:   5    -0.222672564490E+04    0.76727E-01   -0.86904E-01  6240   0.232E+00    0.754E+00
DAV:   6    -0.222677984863E+04   -0.54204E-01   -0.12547E+00  6008   0.179E+00    0.944E+00
DAV:   7    -0.222641175696E+04    0.36809E+00   -0.10576E+00  5832   0.156E+00    0.330E+00
DAV:   8    -0.222645145607E+04   -0.39699E-01   -0.10264E-01  5168   0.758E-01    0.142E+00
DAV:   9    -0.222644187574E+04    0.95803E-02   -0.23791E-02  5240   0.377E-01    0.718E-01
DAV:  10    -0.222644066290E+04    0.12128E-02   -0.79115E-03  5448   0.203E-01    0.430E-01
DAV:  11    -0.222644054958E+04    0.11333E-03   -0.27430E-03  5304   0.103E-01    0.215E-01
DAV:  12    -0.222644092427E+04   -0.37469E-03   -0.10760E-03  5736   0.906E-02    0.163E-01
DAV:  13    -0.222644090953E+04    0.14741E-04   -0.58908E-04  5328   0.769E-02    0.138E-01
DAV:  14    -0.222644077467E+04    0.13486E-03   -0.23183E-04  5120   0.484E-02    0.592E-02
DAV:  15    -0.222644078222E+04   -0.75472E-05   -0.62696E-05  4728   0.216E-02    0.258E-02
DAV:  16    -0.222644079415E+04   -0.11933E-04   -0.12538E-05  3112   0.852E-03    0.184E-02
DAV:  17    -0.222644080868E+04   -0.14530E-04   -0.56034E-06  2624   0.540E-03    0.133E-02
DAV:  18    -0.222644082162E+04   -0.12944E-04   -0.38953E-06  2672   0.490E-03    0.108E-02
DAV:  19    -0.222644082658E+04   -0.49571E-05   -0.16532E-06  2728   0.287E-03
  39 F= -.22867597E+04 E0= -.22867261E+04  d E =-.163035E+01
 trial-energy change:   -1.630349  1 .order   -1.603793   -2.000414   -1.207172
 step:   0.6436(harm=  0.7825)  dis= 0.11583  next Energy= -2287.440995 (dE=-0.231E+01)
 bond charge predicted
       N       E                     dE             d eps       ncg     rms          rms(c)
DAV:   1    -0.222624733012E+04    0.19349E+00   -0.61239E+02  4032   0.312E+01    0.126E+01
DAV:   2    -0.222785815188E+04   -0.16108E+01   -0.12403E+01  5328   0.481E+00    0.125E+01
DAV:   3    -0.222831734833E+04   -0.45920E+00   -0.14516E+00  5640   0.426E+00    0.136E+01
DAV:   4    -0.222765583017E+04    0.66152E+00   -0.87504E-01  5856   0.309E+00    0.968E+00
DAV:   5    -0.222740714096E+04    0.24869E+00   -0.76309E-01  6088   0.252E+00    0.658E+00
DAV:   6    -0.222733680601E+04    0.70335E-01   -0.61900E-01  5744   0.170E+00    0.561E+00
DAV:   7    -0.222725354141E+04    0.83265E-01   -0.53563E-01  5784   0.128E+00    0.352E+00
DAV:   8    -0.222719529914E+04    0.58242E-01   -0.95682E-02  5416   0.721E-01    0.103E+00
DAV:   9    -0.222719967469E+04   -0.43756E-02   -0.23085E-02  5208   0.321E-01    0.636E-01
DAV:  10    -0.222719973682E+04   -0.62127E-04   -0.59768E-03  5504   0.187E-01    0.434E-01
DAV:  11    -0.222719952546E+04    0.21136E-03   -0.31803E-03  5648   0.144E-01    0.283E-01
DAV:  12    -0.222719965937E+04   -0.13392E-03   -0.18080E-03  5768   0.119E-01    0.211E-01
DAV:  13    -0.222719949191E+04    0.16747E-03   -0.89872E-04  5440   0.921E-02    0.162E-01
DAV:  14    -0.222719929234E+04    0.19957E-03   -0.31613E-04  5304   0.529E-02    0.502E-02
DAV:  15    -0.222719933459E+04   -0.42253E-04   -0.79673E-05  4976   0.214E-02    0.314E-02
DAV:  16    -0.222719935089E+04   -0.16296E-04   -0.15844E-05  3200   0.116E-02    0.189E-02
DAV:  17    -0.222719937167E+04   -0.20780E-04   -0.71682E-06  2664   0.652E-03    0.142E-02
DAV:  18    -0.222719938884E+04   -0.17166E-04   -0.37947E-06  2680   0.527E-03    0.113E-02
DAV:  19    -0.222719939912E+04   -0.10288E-04   -0.18130E-06  2696   0.298E-03    0.998E-03
DAV:  20    -0.222719941020E+04   -0.11076E-04   -0.10632E-06  2664   0.168E-03    0.973E-03
DAV:  21    -0.222719942475E+04   -0.14555E-04   -0.10218E-06  2632   0.132E-03    0.960E-03
DAV:  22    -0.222719943359E+04   -0.88389E-05   -0.70551E-07  2696   0.116E-03    0.955E-03
DAV:  23    -0.222719944077E+04   -0.71804E-05   -0.69403E-07  2664   0.935E-04    0.953E-03
DAV:  24    -0.222719944435E+04   -0.35773E-05   -0.49489E-07  2696   0.861E-04
  40 F= -.22874892E+04 E0= -.22874545E+04  d E =-.235988E+01
 curvature:  -2.65 expect dE=-0.130E+02 dE for cont linesearch -0.916E-02
 trial: gam= 0.24108 g(F)=  0.490E+01 g(S)=  0.000E+00 ort = 0.406E+00 (trialstep = 0.377E+00)
 search vector abs. value=  0.787E+01
