LAMMPS (24 Mar 2022)
OMP_NUM_THREADS environment is not set. Defaulting to 1 thread. (src/comm.cpp:98)
  using 1 OpenMP thread(s) per MPI task
Reading data file ...
  orthogonal box = (0 0 0) to (16.198 16.198 16.198)
  1 by 1 by 1 MPI processor grid
  reading atoms ...
  256 atoms
  read_data CPU = 0.043 seconds
WARNING: Using 'neigh_modify every 1 delay 0 check yes' setting during minimization (src/min.cpp:187)
Neighbor list info ...
  update every 1 steps, delay 0 steps, check yes
  max neighbors/atom: 2000, page size: 100000
  master list distance cutoff = 8.28721
  ghost atom cutoff = 8.28721
  binsize = 4.143605, bins = 4 4 4
  1 neighbor lists, perpetual/occasional/extra = 1 0 0
  (1) pair eam/alloy, perpetual
      attributes: half, newton on
      pair build: half/bin/atomonly/newton
      stencil: half/bin/3d
      bin: standard
Setting up cg style minimization ...
  Unit style    : metal
  Current step  : 0
Per MPI rank memory allocation (min/avg/max) = 4.536 | 4.536 | 4.536 Mbytes
   Step          Temp          E_pair         E_mol          TotEng         Press     
         0   0             -860.02273      0             -860.02273      342.79389    
Loop time of 3.72e-06 on 1 procs for 0 steps with 256 atoms

134.4% CPU use with 1 MPI tasks x 1 OpenMP threads

Minimization stats:
  Stopping criterion = max iterations
  Energy initial, next-to-last, final = 
      -860.02272908257                  0   -860.02272908257
  Force two-norm initial, final = 1.1933667 1.1933667
  Force max component initial, final = 0.46647099 0.46647099
  Final line search alpha, max atom move = 0 0
  Iterations, force evaluations = 0 0

MPI task timing breakdown:
Section |  min time  |  avg time  |  max time  |%varavg| %total
---------------------------------------------------------------
Pair    | 0          | 0          | 0          |   0.0 |  0.00
Neigh   | 0          | 0          | 0          |   0.0 |  0.00
Comm    | 0          | 0          | 0          |   0.0 |  0.00
Output  | 0          | 0          | 0          |   0.0 |  0.00
Modify  | 0          | 0          | 0          |   0.0 |  0.00
Other   |            | 3.72e-06   |            |       |100.00

Nlocal:            256 ave         256 max         256 min
Histogram: 1 0 0 0 0 0 0 0 0 0
Nghost:           2201 ave        2201 max        2201 min
Histogram: 1 0 0 0 0 0 0 0 0 0
Neighs:          17920 ave       17920 max       17920 min
Histogram: 1 0 0 0 0 0 0 0 0 0

Total # of neighbors = 17920
Ave neighs/atom = 70
Neighbor list builds = 0
Dangerous builds = 0
Setting up Verlet run ...
  Unit style    : metal
  Current step  : 0
  Time step     : 0.01
Per MPI rank memory allocation (min/avg/max) = 4.421 | 4.421 | 4.421 Mbytes
   Step          Temp          E_pair         E_mol          TotEng         Press     
         0   300           -860.02273      0             -850.13433      2827.9919    
       100   140.76055     -854.56372      0             -849.92406      4660.3408    
       200   160.87834     -855.2548       0             -849.95203      4423.4619    
       300   162.51968     -855.3132       0             -849.95633      4440.7607    
       400   158.63939     -855.17645      0             -849.94748      4400.3287    
       500   163.77793     -855.34567      0             -849.94733      4296.7521    
       600   154.28667     -855.021        0             -849.93551      4410.8517    
       700   145.78141     -854.73907      0             -849.93392      4482.4038    
       800   155.17237     -855.05883      0             -849.94414      4485.4375    
       900   150.26425     -854.89503      0             -849.94212      4369.956     
      1000   156.08397     -855.08207      0             -849.93734      4570.7041    
      1100   147.13554     -854.79999      0             -849.95021      4551.8087    
      1200   151.9734      -854.94427      0             -849.93502      4462.3376    
      1300   157.4398      -855.13696      0             -849.94754      4116.2201    
      1400   143.65695     -854.66014      0             -849.92501      4428.6417    
      1500   150.93275     -854.92174      0             -849.94679      4402.3482    
      1600   148.55981     -854.83573      0             -849.939        4440.4199    
      1700   148.26025     -854.83513      0             -849.94828      4500.9263    
      1800   162.00011     -855.30038      0             -849.96064      4155.6047    
      1900   145.89488     -854.74445      0             -849.93556      4461.6057    
      2000   146.32777     -854.74256      0             -849.9194       4297.7039    
      2100   149.39879     -854.8683       0             -849.94392      4485.2252    
      2200   155.20297     -855.05893      0             -849.94324      4371.2154    
      2300   156.33962     -855.09295      0             -849.93979      4277.2634    
      2400   155.08909     -855.07214      0             -849.9602       4543.5213    
      2500   148.67951     -854.83314      0             -849.93247      4525.822     
      2600   159.61726     -855.21598      0             -849.95478      4287.9032    
      2700   155.98367     -855.09214      0             -849.95071      4368.93      
      2800   145.96941     -854.74327      0             -849.93193      4623.019     
      2900   152.06777     -854.96317      0             -849.95081      4588.3719    
      3000   159.81423     -855.23323      0             -849.96554      4202.7645    
      3100   156.15439     -855.10077      0             -849.95371      4336.1105    
      3200   142.51376     -854.63045      0             -849.933        4578.0691    
      3300   146.75855     -854.77479      0             -849.93743      4483.7922    
      3400   150.64573     -854.90839      0             -849.9429       4368.1471    
      3500   146.17974     -854.74834      0             -849.93006      4508.9875    
      3600   159.78322     -855.2156       0             -849.94893      4328.5642    
      3700   151.16905     -854.92037      0             -849.93764      4581.3739    
      3800   153.98376     -855.02103      0             -849.94552      4565.0672    
      3900   152.61533     -854.96777      0             -849.93737      4573.6841    
      4000   155.13151     -855.06465      0             -849.95131      4451.1867    
      4100   147.28844     -854.78907      0             -849.93425      4469.4845    
      4200   159.14521     -855.19336      0             -849.94772      4359.12      
      4300   157.54753     -855.13731      0             -849.94434      4413.3405    
      4400   154.77417     -855.04927      0             -849.94771      4415.6419    
      4500   149.51404     -854.86441      0             -849.93623      4463.6152    
      4600   158.73467     -855.17927      0             -849.94716      4445.9547    
      4700   159.68702     -855.21863      0             -849.95514      4443.5617    
      4800   151.4275      -854.93826      0             -849.94701      4376.6835    
      4900   157.63159     -855.14717      0             -849.95142      4386.9861    
      5000   140.4264      -854.54615      0             -849.91751      4662.5532    
      5100   156.24869     -855.1019       0             -849.95173      4553.1169    
      5200   155.89561     -855.08422      0             -849.94569      4518.3038    
      5300   152.67224     -854.96986      0             -849.93758      4614.8432    
      5400   152.03135     -854.95181      0             -849.94065      4538.7896    
      5500   155.16643     -855.06665      0             -849.95216      4507.7836    
      5600   166.56292     -855.45834      0             -849.9682       4238.4821    
      5700   151.12075     -854.92346      0             -849.94232      4440.5492    
      5800   154.70786     -855.04841      0             -849.94903      4318.752     
      5900   156.52388     -855.10658      0             -849.94734      4373.2465    
      6000   154.5018      -855.04853      0             -849.95594      4245.8563    
      6100   145.83939     -854.74486      0             -849.93779      4311.2744    
      6200   151.19389     -854.92272      0             -849.93917      4511.3855    
      6300   152.58818     -854.97172      0             -849.94221      4350.4608    
      6400   145.7385      -854.74973      0             -849.94599      4464.9281    
      6500   155.79784     -855.08206      0             -849.94675      4345.267     
      6600   147.40009     -854.79846      0             -849.93996      4682.465     
      6700   150.00094     -854.89083      0             -849.9466       4454.8855    
      6800   152.93068     -854.98015      0             -849.93935      4463.8642    
      6900   154.59298     -855.0415       0             -849.9459       4374.5095    
      7000   154.14329     -855.03592      0             -849.95515      4288.3185    
      7100   157.10024     -855.12645      0             -849.94822      4499.0237    
      7200   153.28578     -854.99817      0             -849.94566      4634.6575    
      7300   155.08355     -855.06278      0             -849.95102      4496.7241    
      7400   164.81825     -855.40762      0             -849.97499      4283.0954    
      7500   157.84754     -855.15314      0             -849.95028      4452.1409    
      7600   159.01372     -855.18982      0             -849.94851      4616.3893    
      7700   159.82314     -855.22147      0             -849.95349      4364.7156    
      7800   150.67303     -854.90744      0             -849.94106      4584.0662    
      7900   155.98088     -855.08561      0             -849.94428      4524.5834    
      8000   151.22526     -854.92847      0             -849.94388      4620.0417    
      8100   148.77252     -854.84027      0             -849.93653      4454.8198    
      8200   156.50925     -855.10319      0             -849.94444      4534.3732    
      8300   144.68039     -854.70326      0             -849.9344       4728.5472    
      8400   151.57059     -854.94424      0             -849.94827      4506.2327    
      8500   153.86525     -855.0165       0             -849.94489      4354.6735    
      8600   159.94245     -855.22159      0             -849.94967      4513.3391    
      8700   141.25835     -854.57846      0             -849.92239      4713.6249    
      8800   147.47895     -854.8041       0             -849.943        4690.7557    
      8900   159.26063     -855.20167      0             -849.95223      4258.1918    
      9000   154.04338     -855.02037      0             -849.9429       4434.2225    
      9100   153.34084     -855.00298      0             -849.94866      4389.5414    
      9200   156.35776     -855.10382      0             -849.95006      4635.0648    
      9300   155.45421     -855.08036      0             -849.95638      4428.2182    
      9400   148.26059     -854.83171      0             -849.94485      4436.5534    
      9500   149.64816     -854.88161      0             -849.949        4178.5567    
      9600   153.46638     -855.00598      0             -849.94752      4461.4037    
      9700   157.30426     -855.14032      0             -849.95537      4458.1916    
      9800   141.72713     -854.59205      0             -849.92053      4380.3978    
      9900   156.28693     -855.09132      0             -849.9399       4363.3238    
     10000   149.14758     -854.84908      0             -849.93298      4608.5981    
Loop time of 5.13098 on 1 procs for 10000 steps with 256 atoms

Performance: 1683.888 ns/day, 0.014 hours/ns, 1948.944 timesteps/s
100.0% CPU use with 1 MPI tasks x 1 OpenMP threads

MPI task timing breakdown:
Section |  min time  |  avg time  |  max time  |%varavg| %total
---------------------------------------------------------------
Pair    | 4.8275     | 4.8275     | 4.8275     |   0.0 | 94.09
Neigh   | 0          | 0          | 0          |   0.0 |  0.00
Comm    | 0.0857     | 0.0857     | 0.0857     |   0.0 |  1.67
Output  | 0.1736     | 0.1736     | 0.1736     |   0.0 |  3.38
Modify  | 0.021537   | 0.021537   | 0.021537   |   0.0 |  0.42
Other   |            | 0.02263    |            |       |  0.44

Nlocal:            256 ave         256 max         256 min
Histogram: 1 0 0 0 0 0 0 0 0 0
Nghost:           2201 ave        2201 max        2201 min
Histogram: 1 0 0 0 0 0 0 0 0 0
Neighs:          17920 ave       17920 max       17920 min
Histogram: 1 0 0 0 0 0 0 0 0 0

Total # of neighbors = 17920
Ave neighs/atom = 70
Neighbor list builds = 0
Dangerous builds = 0
System init for write_restart ...
Total wall time: 0:00:05
