  254  254    1    1
  0.2268316E+02  0.1514622E-08  0.1514622E-08  0.2900000E-08  0.5000000E-15
   1.0000000000000000E-004
  CAR 
 NiAl                                    
   2532      4   1519
 
  0.1262379E-14  0.1262379E-14  0.1262379E-14  0.2500000E+00
    1      -26.012331   1.000000
    2      -19.564158   1.000000
    3      -10.899301   1.000000
    4       -9.640827   1.000000
    5       -9.192331   1.000000
    6       -9.046046   1.000000
    7       -8.517213   1.000000
    8       -8.156509   1.000000
    9       -8.155715   1.000000
   10       -8.155568   1.000000
   11       -8.155312   1.000000
   12       -8.152239   1.000000
   13       -8.141460   1.000000
   14       -7.694695   1.000000
   15       -7.653777   1.000000
   16       -7.650016   1.000000
   17       -7.649899   1.000000
   18       -7.649442   1.000000
   19       -7.641339   1.000000
   20       -7.600823   1.000000
   21       -6.869400   1.000000
   22       -6.862613   1.000000
   23       -6.861771   1.000000
   24       -6.861293   1.000000
   25       -6.851903   1.000000
   26       -6.820012   1.000000
   27       -6.809939   1.000000
   28       -6.647379   1.000000
   29       -6.519082   1.000000
   30       -6.515667   1.000000
   31       -6.515158   1.000000
   32       -6.514942   1.000000
   33       -6.513152   1.000000
   34       -6.512224   1.000000
   35       -6.146050   1.000000
   36       -6.094884   1.000000
   37       -6.093248   1.000000
   38       -6.092976   1.000000
   39       -6.088966   1.000000
   40       -6.086848   1.000000
   41       -6.048612   1.000000
   42       -5.891978   1.000000
   43       -5.890826   1.000000
   44       -5.889791   1.000000
   45       -5.888292   1.000000
   46       -5.886456   1.000000
   47       -5.886029   1.000000
   48       -5.885286   1.000000
   49       -5.884670   1.000000
   50       -5.883948   1.000000
   51       -5.878594   1.000000
   52       -5.874527   1.000000
   53       -5.822596   1.000000
   54       -5.629269   1.000000
   55       -5.556743   1.000000
   56       -5.552103   1.000000
   57       -5.551226   1.000000
   58       -5.547854   1.000000
   59       -5.544779   1.000000
   60       -5.543296   1.000000
   61       -5.466006   1.000000
   62       -5.463749   1.000000
   63       -5.461037   1.000000
   64       -5.460744   1.000000
   65       -5.450483   1.000000
   66       -5.448382   1.000000
   67       -5.103426   1.000000
   68       -5.099493   1.000000
   69       -5.096064   1.000000
   70       -5.089870   1.000000
   71       -5.086436   1.000000
   72       -5.085066   1.000000
   73       -4.990471   1.000000
   74       -4.942644   1.000000
   75       -4.940054   1.000000
   76       -4.939330   1.000000
   77       -4.938996   1.000000
   78       -4.938451   1.000000
   79       -4.877373   1.000000
   80       -4.800830   1.000000
   81       -4.749208   1.000000
   82       -4.746966   1.000000
   83       -4.746846   1.000000
   84       -4.739062   1.000000
   85       -4.734475   1.000000
   86       -4.730587   1.000000
   87       -4.729870   1.000000
   88       -4.721006   1.000000
   89       -4.711345   1.000000
   90       -4.634987   1.000000
   91       -4.627984   1.000000
   92       -4.627869   1.000000
   93       -4.621022   1.000000
   94       -4.618272   1.000000
   95       -4.617694   1.000000
   96       -4.591094   1.000000
   97       -4.590804   1.000000
   98       -4.590708   1.000000
   99       -4.519580   1.000000
  100       -4.519278   1.000000
  101       -4.518699   1.000000
  102       -4.514927   1.000000
  103       -4.514372   1.000000
  104       -4.514311   1.000000
  105       -4.514241   1.000000
  106       -4.514006   1.000000
  107       -4.513809   1.000000
  108       -4.513768   1.000000
  109       -4.513663   1.000000
  110       -4.513090   1.000000
  111       -4.473542   1.000000
  112       -4.472505   1.000000
  113       -4.469629   1.000000
  114       -4.389759   1.000000
  115       -4.385767   1.000000
  116       -4.383664   1.000000
  117       -4.372545   1.000000
  118       -4.365585   1.000000
  119       -4.361757   1.000000
  120       -4.361564   1.000000
  121       -4.360499   1.000000
  122       -4.340927   1.000000
  123       -4.332936   1.000000
  124       -4.329726   1.000000
  125       -4.324517   1.000000
  126       -4.317425   1.000000
  127       -4.316099   1.000000
  128       -4.316076   1.000000
  129       -4.315739   1.000000
  130       -4.315585   1.000000
  131       -4.315446   1.000000
  132       -4.314924   1.000000
  133       -4.313838   1.000000
  134       -4.312793   1.000000
  135       -4.291395   1.000000
  136       -4.289880   1.000000
  137       -4.286432   1.000000
  138       -4.285187   1.000000
  139       -4.282485   1.000000
  140       -4.281883   1.000000
  141       -4.281258   1.000000
  142       -4.281228   1.000000
  143       -4.280919   1.000000
  144       -4.280599   1.000000
  145       -4.280390   1.000000
  146       -4.280229   1.000000
  147       -4.242912   1.000000
  148       -4.239090   1.000000
  149       -4.236980   1.000000
  150       -4.236863   1.000000
  151       -4.236381   1.000000
  152       -4.234820   1.000000
  153       -4.211982   1.000000
  154       -4.209388   1.000000
  155       -4.203079   1.000000
  156       -4.202927   1.000000
  157       -4.196414   1.000000
  158       -4.189744   1.000000
  159       -4.186061   1.000000
  160       -4.182122   1.000000
  161       -4.177189   1.000000
  162       -4.163683   1.000000
  163       -4.163205   1.000000
  164       -4.160050   1.000000
  165       -4.152571   1.000000
  166       -4.144893   1.000000
  167       -4.144235   1.000000
  168       -4.143590   1.000000
  169       -4.142646   1.000000
  170       -4.142161   1.000000
  171       -4.140726   1.000000
  172       -4.139111   1.000000
  173       -4.137546   1.000000
  174       -4.080892   1.000000
  175       -4.079922   1.000000
  176       -4.075629   1.000000
  177       -4.075619   1.000000
  178       -4.072084   1.000000
  179       -4.064143   1.000000
  180       -4.038954   1.000000
  181       -4.034467   1.000000
  182       -4.033845   1.000000
  183       -4.024680   1.000000
  184       -3.965272   1.000000
  185       -3.962383   1.000000
  186       -3.959326   1.000000
  187       -3.957942   1.000000
  188       -3.954262   1.000000
  189       -3.952853   1.000000
  190       -3.945233   1.000000
  191       -3.943380   1.000000
  192       -3.943010   1.000000
  193       -3.942787   1.000000
  194       -3.941367   1.000000
  195       -3.940237   1.000000
  196       -3.934802   1.000000
  197       -3.927618   1.000000
  198       -3.893784   1.000000
  199       -3.881562   1.000000
  200       -3.878402   1.000000
  201       -3.870875   1.000000
  202       -3.835689   1.000000
  203       -3.827979   1.000000
  204       -3.827854   1.000000
  205       -3.825627   1.000000
  206       -3.824010   1.000000
  207       -3.822626   1.000000
  208       -3.806163   1.000000
  209       -3.798702   1.000000
  210       -3.772088   1.000000
  211       -3.758598   1.000000
  212       -3.757397   1.000000
  213       -3.755863   1.000000
  214       -3.755499   1.000000
  215       -3.754848   1.000000
  216       -3.754088   1.000000
  217       -3.753927   1.000000
  218       -3.753863   1.000000
  219       -3.753684   1.000000
  220       -3.753675   1.000000
  221       -3.751855   1.000000
  222       -3.750802   1.000000
  223       -3.750127   1.000000
  224       -3.749483   1.000000
  225       -3.748645   1.000000
  226       -3.743013   1.000000
  227       -3.737535   1.000000
  228       -3.724709   1.000000
  229       -3.711961   1.000000
  230       -3.710357   1.000000
  231       -3.699990   1.000000
  232       -3.698766   1.000000
  233       -3.697302   1.000000
  234       -3.696522   1.000000
  235       -3.695340   1.000000
  236       -3.694280   1.000000
  237       -3.694138   1.000000
  238       -3.691857   1.000000
  239       -3.689075   1.000000
  240       -3.679953   1.000000
  241       -3.674746   1.000000
  242       -3.674119   1.000000
  243       -3.672966   1.000000
  244       -3.672482   1.000000
  245       -3.656957   1.000000
  246       -3.636282   1.000000
  247       -3.634467   1.000000
  248       -3.634153   1.000000
  249       -3.633925   1.000000
  250       -3.632797   1.000000
  251       -3.632271   1.000000
  252       -3.631054   1.000000
  253       -3.628527   1.000000
  254       -3.627973   1.000000
  255       -3.627655   1.000000
  256       -3.621380   1.000000
  257       -3.619964   1.000000
  258       -3.618500   1.000000
  259       -3.586808   1.000000
  260       -3.577978   1.000000
  261       -3.575639   1.000000
  262       -3.570232   1.000000
  263       -3.568455   1.000000
  264       -3.566808   1.000000
  265       -3.566411   1.000000
  266       -3.565974   1.000000
  267       -3.565833   1.000000
  268       -3.565670   1.000000
  269       -3.563016   1.000000
  270       -3.560202   1.000000
  271       -3.559776   1.000000
  272       -3.545638   1.000000
  273       -3.545313   1.000000
  274       -3.538337   1.000000
  275       -3.533643   1.000000
  276       -3.532618   1.000000
  277       -3.529042   1.000000
  278       -3.525722   1.000000
  279       -3.518937   1.000000
  280       -3.514204   1.000000
  281       -3.503479   1.000000
  282       -3.498294   1.000000
  283       -3.497972   1.000000
  284       -3.492573   1.000000
  285       -3.491897   1.000000
  286       -3.489693   1.000000
  287       -3.489048   1.000000
  288       -3.488970   1.000000
  289       -3.487231   1.000000
  290       -3.486516   1.000000
  291       -3.486178   1.000000
  292       -3.485766   1.000000
  293       -3.484776   1.000000
  294       -3.484153   1.000000
  295       -3.483778   1.000000
  296       -3.477900   1.000000
  297       -3.469077   1.000000
  298       -3.461232   1.000000
  299       -3.425876   1.000000
  300       -3.420057   1.000000
  301       -3.415288   1.000000
  302       -3.415279   1.000000
  303       -3.413391   1.000000
  304       -3.411644   1.000000
  305       -3.409957   1.000000
  306       -3.409494   1.000000
  307       -3.408152   1.000000
  308       -3.407251   1.000000
  309       -3.407134   1.000000
  310       -3.404439   1.000000
  311       -3.403704   1.000000
  312       -3.394057   1.000000
  313       -3.372291   1.000000
  314       -3.359370   1.000000
  315       -3.345648   1.000000
  316       -3.338040   1.000000
  317       -3.336036   1.000000
  318       -3.334017   1.000000
  319       -3.333387   1.000000
  320       -3.329767   1.000000
  321       -3.323292   1.000000
  322       -3.322387   1.000000
  323       -3.306405   1.000000
  324       -3.304931   1.000000
  325       -3.303837   1.000000
  326       -3.302325   1.000000
  327       -3.299861   1.000000
  328       -3.298755   1.000000
  329       -3.298622   1.000000
  330       -3.294863   1.000000
  331       -3.294077   1.000000
  332       -3.293835   1.000000
  333       -3.292145   1.000000
  334       -3.290858   1.000000
  335       -3.289044   1.000000
  336       -3.287845   1.000000
  337       -3.287749   1.000000
  338       -3.285704   1.000000
  339       -3.285678   1.000000
  340       -3.285046   1.000000
  341       -3.266147   1.000000
  342       -3.227826   1.000000
  343       -3.216584   1.000000
  344       -3.204290   1.000000
  345       -3.195005   1.000000
  346       -3.189517   1.000000
  347       -3.175983   1.000000
  348       -3.173738   1.000000
  349       -3.172284   1.000000
  350       -3.156156   1.000000
  351       -3.155215   1.000000
  352       -3.153521   1.000000
  353       -3.147840   1.000000
  354       -3.146229   1.000000
  355       -3.145977   1.000000
  356       -3.141243   1.000000
  357       -3.137244   1.000000
  358       -3.132076   1.000000
  359       -3.131336   1.000000
  360       -3.122034   1.000000
  361       -3.120703   1.000000
  362       -3.120630   1.000000
  363       -3.116936   1.000000
  364       -3.114036   1.000000
  365       -3.113473   1.000000
  366       -3.108707   1.000000
  367       -3.079743   1.000000
  368       -3.071559   1.000000
  369       -3.066093   1.000000
  370       -3.065255   1.000000
  371       -3.063406   1.000000
  372       -3.056670   1.000000
  373       -3.047420   1.000000
  374       -3.034893   1.000000
  375       -3.032093   1.000000
  376       -3.030853   1.000000
  377       -3.026971   1.000000
  378       -3.023915   1.000000
  379       -3.023674   1.000000
  380       -3.023591   1.000000
  381       -3.023277   1.000000
  382       -3.022757   1.000000
  383       -3.022274   1.000000
  384       -3.022046   1.000000
  385       -3.015976   1.000000
  386       -2.993087   1.000000
  387       -2.986282   1.000000
  388       -2.982439   1.000000
  389       -2.980984   1.000000
  390       -2.980360   1.000000
  391       -2.977607   1.000000
  392       -2.976006   1.000000
  393       -2.973788   1.000000
  394       -2.971750   1.000000
  395       -2.971105   1.000000
  396       -2.969097   1.000000
  397       -2.965181   1.000000
  398       -2.934145   1.000000
  399       -2.922826   1.000000
  400       -2.921498   1.000000
  401       -2.918419   1.000000
  402       -2.916814   1.000000
  403       -2.915707   1.000000
  404       -2.914805   1.000000
  405       -2.884259   1.000000
  406       -2.873114   1.000000
  407       -2.868956   1.000000
  408       -2.861816   1.000000
  409       -2.859236   1.000000
  410       -2.854318   1.000000
  411       -2.850803   1.000000
  412       -2.849350   1.000000
  413       -2.848173   1.000000
  414       -2.847795   1.000000
  415       -2.844652   1.000000
  416       -2.843237   1.000000
  417       -2.833887   1.000000
  418       -2.833249   1.000000
  419       -2.831727   1.000000
  420       -2.822374   1.000000
  421       -2.821359   1.000000
  422       -2.820555   1.000000
  423       -2.820217   1.000000
  424       -2.819650   1.000000
  425       -2.818470   1.000000
  426       -2.817812   1.000000
  427       -2.814771   1.000000
  428       -2.809865   1.000000
  429       -2.804888   1.000000
  430       -2.803084   1.000000
  431       -2.797296   1.000000
  432       -2.794429   1.000000
  433       -2.793102   1.000000
  434       -2.792442   1.000000
  435       -2.792018   1.000000
  436       -2.790194   1.000000
  437       -2.787998   1.000000
  438       -2.786671   1.000000
  439       -2.786533   1.000000
  440       -2.786334   1.000000
  441       -2.786175   1.000000
  442       -2.785941   1.000000
  443       -2.785118   1.000000
  444       -2.784511   1.000000
  445       -2.763522   1.000000
  446       -2.758227   1.000000
  447       -2.742071   1.000000
  448       -2.738228   1.000000
  449       -2.733102   1.000000
  450       -2.726826   1.000000
  451       -2.726409   1.000000
  452       -2.720126   1.000000
  453       -2.718128   1.000000
  454       -2.715681   1.000000
  455       -2.715535   1.000000
  456       -2.714336   1.000000
  457       -2.713222   1.000000
  458       -2.712976   1.000000
  459       -2.712854   1.000000
  460       -2.712800   1.000000
  461       -2.712495   1.000000
  462       -2.712202   1.000000
  463       -2.711805   1.000000
  464       -2.709646   1.000000
  465       -2.709062   1.000000
  466       -2.699839   1.000000
  467       -2.698750   1.000000
  468       -2.688371   1.000000
  469       -2.675372   1.000000
  470       -2.674267   1.000000
  471       -2.671778   1.000000
  472       -2.665174   1.000000
  473       -2.662898   1.000000
  474       -2.651409   1.000000
  475       -2.633731   1.000000
  476       -2.630269   1.000000
  477       -2.626100   1.000000
  478       -2.625930   1.000000
  479       -2.623257   1.000000
  480       -2.621743   1.000000
  481       -2.621135   1.000000
  482       -2.620210   1.000000
  483       -2.619991   1.000000
  484       -2.618454   1.000000
  485       -2.618407   1.000000
  486       -2.617688   1.000000
  487       -2.617569   1.000000
  488       -2.616344   1.000000
  489       -2.616307   1.000000
  490       -2.615615   1.000000
  491       -2.614966   1.000000
  492       -2.613994   1.000000
  493       -2.613615   1.000000
  494       -2.612069   1.000000
  495       -2.611640   1.000000
  496       -2.611492   1.000000
  497       -2.610630   1.000000
  498       -2.609967   1.000000
  499       -2.609844   1.000000
  500       -2.608238   1.000000
  501       -2.605251   1.000000
  502       -2.597750   1.000000
  503       -2.583958   1.000000
  504       -2.582940   1.000000
  505       -2.569829   1.000000
  506       -2.567603   1.000000
  507       -2.560732   1.000000
  508       -2.555704   1.000000
  509       -2.554595   1.000000
  510       -2.554014   1.000000
  511       -2.552856   1.000000
  512       -2.552317   1.000000
  513       -2.550710   1.000000
  514       -2.550368   1.000000
  515       -2.550238   1.000000
  516       -2.548857   1.000000
  517       -2.546576   1.000000
  518       -2.537874   1.000000
  519       -2.526301   1.000000
  520       -2.525712   1.000000
  521       -2.519793   1.000000
  522       -2.519645   1.000000
  523       -2.515688   1.000000
  524       -2.499411   1.000000
  525       -2.485756   1.000000
  526       -2.476485   1.000000
  527       -2.475576   1.000000
  528       -2.469556   1.000000
  529       -2.463597   1.000000
  530       -2.461353   1.000000
  531       -2.457812   1.000000
  532       -2.456376   1.000000
  533       -2.454066   1.000000
  534       -2.453320   1.000000
  535       -2.452741   1.000000
  536       -2.451112   1.000000
  537       -2.450739   1.000000
  538       -2.450159   1.000000
  539       -2.448657   1.000000
  540       -2.448220   1.000000
  541       -2.446721   1.000000
  542       -2.443647   1.000000
  543       -2.437947   1.000000
  544       -2.422590   1.000000
  545       -2.414605   1.000000
  546       -2.412486   1.000000
  547       -2.405538   1.000000
  548       -2.403200   1.000000
  549       -2.400852   1.000000
  550       -2.398695   1.000000
  551       -2.394986   1.000000
  552       -2.394028   1.000000
  553       -2.392474   1.000000
  554       -2.392403   1.000000
  555       -2.390668   1.000000
  556       -2.387347   1.000000
  557       -2.385448   1.000000
  558       -2.384655   1.000000
  559       -2.382923   1.000000
  560       -2.381927   1.000000
  561       -2.380593   1.000000
  562       -2.379423   1.000000
  563       -2.379363   1.000000
  564       -2.379014   1.000000
  565       -2.377988   1.000000
  566       -2.376514   1.000000
  567       -2.376382   1.000000
  568       -2.375171   1.000000
  569       -2.372438   1.000000
  570       -2.369704   1.000000
  571       -2.369599   1.000000
  572       -2.368741   1.000000
  573       -2.368720   1.000000
  574       -2.351219   1.000000
  575       -2.342989   1.000000
  576       -2.340650   1.000000
  577       -2.336247   1.000000
  578       -2.328613   1.000000
  579       -2.327538   1.000000
  580       -2.322095   1.000000
  581       -2.317519   1.000000
  582       -2.316660   1.000000
  583       -2.315712   1.000000
  584       -2.315241   1.000000
  585       -2.312919   1.000000
  586       -2.312605   1.000000
  587       -2.307903   1.000000
  588       -2.305779   1.000000
  589       -2.298979   1.000000
  590       -2.295409   1.000000
  591       -2.288181   1.000000
  592       -2.284921   1.000000
  593       -2.283207   1.000000
  594       -2.281286   1.000000
  595       -2.277511   1.000000
  596       -2.277444   1.000000
  597       -2.276187   1.000000
  598       -2.267522   1.000000
  599       -2.265188   1.000000
  600       -2.264885   1.000000
  601       -2.263602   1.000000
  602       -2.263383   1.000000
  603       -2.262659   1.000000
  604       -2.261522   1.000000
  605       -2.259630   1.000000
  606       -2.257413   1.000000
  607       -2.253856   1.000000
  608       -2.250742   1.000000
  609       -2.244445   1.000000
  610       -2.244432   1.000000
  611       -2.243646   1.000000
  612       -2.242784   1.000000
  613       -2.241543   1.000000
  614       -2.239840   1.000000
  615       -2.238554   1.000000
  616       -2.233302   1.000000
  617       -2.230883   1.000000
  618       -2.223736   1.000000
  619       -2.219802   1.000000
  620       -2.208304   1.000000
  621       -2.207212   1.000000
  622       -2.204215   1.000000
  623       -2.200125   1.000000
  624       -2.196183   1.000000
  625       -2.190970   1.000000
  626       -2.190549   1.000000
  627       -2.183759   1.000000
  628       -2.182240   1.000000
  629       -2.175156   1.000000
  630       -2.174914   1.000000
  631       -2.169675   1.000000
  632       -2.168809   1.000000
  633       -2.168624   1.000000
  634       -2.168592   1.000000
  635       -2.167516   1.000000
  636       -2.166687   1.000000
  637       -2.155757   1.000000
  638       -2.150067   1.000000
  639       -2.150008   1.000000
  640       -2.147885   1.000000
  641       -2.147206   1.000000
  642       -2.145094   1.000000
  643       -2.144516   1.000000
  644       -2.144198   1.000000
  645       -2.138747   1.000000
  646       -2.137852   1.000000
  647       -2.136495   1.000000
  648       -2.133786   1.000000
  649       -2.130901   1.000000
  650       -2.129146   1.000000
  651       -2.125437   1.000000
  652       -2.122183   1.000000
  653       -2.121685   1.000000
  654       -2.121599   1.000000
  655       -2.121503   1.000000
  656       -2.120953   1.000000
  657       -2.119199   1.000000
  658       -2.119158   1.000000
  659       -2.117674   1.000000
  660       -2.116995   1.000000
  661       -2.116665   1.000000
  662       -2.115804   1.000000
  663       -2.113256   1.000000
  664       -2.110542   1.000000
  665       -2.110194   1.000000
  666       -2.108427   1.000000
  667       -2.108011   1.000000
  668       -2.107444   1.000000
  669       -2.106063   1.000000
  670       -2.105989   1.000000
  671       -2.103882   1.000000
  672       -2.101032   1.000000
  673       -2.098272   1.000000
  674       -2.083778   1.000000
  675       -2.073016   1.000000
  676       -2.072933   1.000000
  677       -2.069899   1.000000
  678       -2.060527   1.000000
  679       -2.055945   1.000000
  680       -2.055757   1.000000
  681       -2.052943   1.000000
  682       -2.051921   1.000000
  683       -2.047795   1.000000
  684       -2.041550   1.000000
  685       -2.039644   1.000000
  686       -2.037023   1.000000
  687       -2.034096   1.000000
  688       -2.032600   1.000000
  689       -2.032014   1.000000
  690       -2.025294   1.000000
  691       -2.021037   1.000000
  692       -2.017070   1.000000
  693       -2.012490   1.000000
  694       -2.012036   1.000000
  695       -2.010546   1.000000
  696       -2.009600   1.000000
  697       -2.009536   1.000000
  698       -2.008877   1.000000
  699       -2.007418   1.000000
  700       -2.006056   1.000000
  701       -2.005624   1.000000
  702       -2.004472   1.000000
  703       -2.004385   1.000000
  704       -1.998025   1.000000
  705       -1.996545   1.000000
  706       -1.994971   1.000000
  707       -1.994374   1.000000
  708       -1.993174   1.000000
  709       -1.992406   1.000000
  710       -1.991682   1.000000
  711       -1.991389   1.000000
  712       -1.989822   1.000000
  713       -1.989120   1.000000
  714       -1.989040   1.000000
  715       -1.988587   1.000000
  716       -1.987612   1.000000
  717       -1.987371   1.000000
  718       -1.977416   1.000000
  719       -1.968570   1.000000
  720       -1.967575   1.000000
  721       -1.964955   1.000000
  722       -1.964216   1.000000
  723       -1.963680   1.000000
  724       -1.963560   1.000000
  725       -1.962085   1.000000
  726       -1.955928   1.000000
  727       -1.954025   1.000000
  728       -1.945621   1.000000
  729       -1.943179   1.000000
  730       -1.940139   1.000000
  731       -1.937902   1.000000
  732       -1.937467   1.000000
  733       -1.937063   1.000000
  734       -1.929252   1.000000
  735       -1.922914   1.000000
  736       -1.922540   1.000000
  737       -1.920487   1.000000
  738       -1.920358   1.000000
  739       -1.919720   1.000000
  740       -1.918462   1.000000
  741       -1.918332   1.000000
  742       -1.912917   1.000000
  743       -1.902366   1.000000
  744       -1.890330   1.000000
  745       -1.885724   1.000000
  746       -1.880434   1.000000
  747       -1.880137   1.000000
  748       -1.876396   1.000000
  749       -1.875653   1.000000
  750       -1.875026   1.000000
  751       -1.873315   1.000000
  752       -1.870160   1.000000
  753       -1.869197   1.000000
  754       -1.867718   1.000000
  755       -1.866457   1.000000
  756       -1.863837   1.000000
  757       -1.862667   1.000000
  758       -1.856436   1.000000
  759       -1.840174   1.000000
  760       -1.839214   1.000000
  761       -1.836677   1.000000
  762       -1.831285   1.000000
  763       -1.825161   1.000000
  764       -1.822914   1.000000
  765       -1.820130   1.000000
  766       -1.819531   1.000000
  767       -1.818921   1.000000
  768       -1.818029   1.000000
  769       -1.816619   1.000000
  770       -1.815823   1.000000
  771       -1.813423   1.000000
  772       -1.812508   1.000000
  773       -1.811832   1.000000
  774       -1.811024   1.000000
  775       -1.810775   1.000000
  776       -1.810713   1.000000
  777       -1.809912   1.000000
  778       -1.806940   1.000000
  779       -1.802727   1.000000
  780       -1.802211   1.000000
  781       -1.796107   1.000000
  782       -1.793528   1.000000
  783       -1.784965   1.000000
  784       -1.784626   1.000000
  785       -1.776808   1.000000
  786       -1.776482   1.000000
  787       -1.774811   1.000000
  788       -1.772817   1.000000
  789       -1.772503   1.000000
  790       -1.771976   1.000000
  791       -1.771094   1.000000
  792       -1.770810   1.000000
  793       -1.769748   1.000000
  794       -1.766764   1.000000
  795       -1.762635   1.000000
  796       -1.759246   1.000000
  797       -1.754952   1.000000
  798       -1.750130   1.000000
  799       -1.749369   1.000000
  800       -1.745443   1.000000
  801       -1.744286   1.000000
  802       -1.739733   1.000000
  803       -1.737222   1.000000
  804       -1.734641   1.000000
  805       -1.734240   1.000000
  806       -1.730407   1.000000
  807       -1.730308   1.000000
  808       -1.727316   1.000000
  809       -1.726524   1.000000
  810       -1.724612   1.000000
  811       -1.722852   1.000000
  812       -1.721675   1.000000
  813       -1.720009   1.000000
  814       -1.719656   1.000000
  815       -1.715571   1.000000
  816       -1.707368   1.000000
  817       -1.703980   1.000000
  818       -1.702657   1.000000
  819       -1.699999   1.000000
  820       -1.696646   1.000000
  821       -1.694915   1.000000
  822       -1.692598   1.000000
  823       -1.691108   1.000000
  824       -1.685071   1.000000
  825       -1.682859   1.000000
  826       -1.682062   1.000000
  827       -1.681868   1.000000
  828       -1.680257   1.000000
  829       -1.678693   1.000000
  830       -1.668499   1.000000
  831       -1.667431   1.000000
  832       -1.657243   1.000000
  833       -1.655861   1.000000
  834       -1.655054   1.000000
  835       -1.652666   1.000000
  836       -1.651740   1.000000
  837       -1.649959   1.000000
  838       -1.647719   1.000000
  839       -1.646061   1.000000
  840       -1.644859   1.000000
  841       -1.644124   1.000000
  842       -1.643924   1.000000
  843       -1.642918   1.000000
  844       -1.639555   1.000000
  845       -1.638255   1.000000
  846       -1.635100   1.000000
  847       -1.634594   1.000000
  848       -1.633522   1.000000
  849       -1.632909   1.000000
  850       -1.632392   1.000000
  851       -1.631624   1.000000
  852       -1.629719   1.000000
  853       -1.628139   1.000000
  854       -1.626827   1.000000
  855       -1.626060   1.000000
  856       -1.625240   1.000000
  857       -1.621697   1.000000
  858       -1.621405   1.000000
  859       -1.619676   1.000000
  860       -1.616235   1.000000
  861       -1.605129   1.000000
  862       -1.603450   1.000000
  863       -1.601797   1.000000
  864       -1.585140   1.000000
  865       -1.576233   1.000000
  866       -1.574598   1.000000
  867       -1.572671   1.000000
  868       -1.569116   1.000000
  869       -1.566638   1.000000
  870       -1.562044   1.000000
  871       -1.559629   1.000000
  872       -1.543085   1.000000
  873       -1.541517   1.000000
  874       -1.539742   1.000000
  875       -1.538881   1.000000
  876       -1.538549   1.000000
  877       -1.536215   1.000000
  878       -1.534979   1.000000
  879       -1.532865   1.000000
  880       -1.532294   1.000000
  881       -1.531783   1.000000
  882       -1.529923   1.000000
  883       -1.528425   1.000000
  884       -1.522110   1.000000
  885       -1.513923   1.000000
  886       -1.512938   1.000000
  887       -1.511449   1.000000
  888       -1.490928   1.000000
  889       -1.489899   1.000000
  890       -1.469960   1.000000
  891       -1.468176   1.000000
  892       -1.466489   1.000000
  893       -1.461048   1.000000
  894       -1.460905   1.000000
  895       -1.459190   1.000000
  896       -1.453665   1.000000
  897       -1.432580   1.000000
  898       -1.430387   1.000000
  899       -1.422156   1.000000
  900       -1.419744   1.000000
  901       -1.413257   1.000000