ITEM: TIMESTEP
0
ITEM: NUMBER OF ATOMS
108
ITEM: BOX BOUNDS xy xz yz pp pp pp
-7.2075420000000001e+00 1.4415084000000000e+01 -7.2075420000000001e+00
0.0000000000000000e+00 1.2483828000000001e+01 0.0000000000000000e+00
0.0000000000000000e+00 3.1116254000000001e+01 0.0000000000000000e+00
ITEM: ATOMS id type xs ys zs
1 1 0.999485 0.999718 0.0634871
2 1 0.110463 0.221849 0.0322768
3 1 0.110629 0.221872 0.133418
4 1 0.221741 0.110844 0.0721346
5 1 0.221845 0.110882 0.201991
6 1 0.999466 0.99956 0.148032
7 1 9.567e-05 0.999965 0.273707
8 1 0.110381 0.22179 0.218959
9 1 0.111631 0.222472 0.349095
10 1 0.22232 0.111003 0.287777
11 1 0.222778 0.111891 0.389358
12 1 9.768e-05 0.9998 0.358594
13 1 0.999509 0.333075 0.0634505
14 1 0.110608 0.555305 0.0323046
15 1 0.110622 0.555228 0.133509
16 1 0.221744 0.444173 0.0720558
17 1 0.221743 0.444338 0.201541
18 1 0.999297 0.332876 0.147972
19 1 0.999215 0.332982 0.273674
20 1 0.110133 0.555299 0.219121
21 1 0.110625 0.555138 0.349639
22 1 0.220419 0.443216 0.287038
23 1 0.222704 0.444054 0.389657
24 1 0.999824 0.332982 0.358525
25 1 0.999547 0.666383 0.0635311
26 1 0.110578 0.888626 0.0323515
27 1 0.110723 0.88864 0.133641
28 1 0.22175 0.777566 0.0721866
29 1 0.221939 0.777586 0.202248
30 1 0.999631 0.666416 0.1481
31 1 0.999497 0.666193 0.274014
32 1 0.110826 0.888554 0.219367
33 1 0.111164 0.888849 0.35013
34 1 0.221751 0.777724 0.288167
35 1 0.22218 0.777631 0.389898
36 1 0.999388 0.666272 0.358891
37 1 0.332818 0.999789 0.063463
38 1 0.444018 0.221931 0.0322793
39 1 0.444109 0.221976 0.13349
40 1 0.55511 0.11086 0.0722222
41 1 0.555175 0.11089 0.202367
42 1 0.332962 0.999758 0.148001
43 1 0.33326 0.999865 0.273757
44 1 0.444233 0.221766 0.21906
45 1 0.445339 0.223098 0.349105
46 1 0.555595 0.110776 0.28825
47 1 0.555509 0.111293 0.389977
48 1 0.333495 0.00021561 0.358623
49 1 0.332862 0.333067 0.0632683
50 1 0.444089 0.555409 0.0321808
51 1 0.444055 0.555358 0.133253
52 1 0.555128 0.444165 0.0721256
53 1 0.555143 0.444014 0.202249
54 1 0.332979 0.333026 0.147766
55 1 0.333033 0.333427 0.272351
56 1 0.444102 0.555211 0.218596
57 1 0.439737 0.554274 0.345839
58 1 0.555717 0.443934 0.288608
59 1 0.555001 0.437867 0.402146
60 1 0.335335 0.33399 0.35678
61 1 0.332908 0.666473 0.0633061
62 1 0.444004 0.888826 0.0322841
63 1 0.444062 0.888728 0.133575
64 1 0.55513 0.777605 0.072137
65 1 0.555224 0.777514 0.201973
66 1 0.332855 0.666682 0.147807
67 1 0.332581 0.666243 0.272697
68 1 0.44436 0.888875 0.219228
69 1 0.444361 0.888752 0.349827
70 1 0.555338 0.777796 0.287763
71 1 0.554901 0.77633 0.389593
72 1 0.332851 0.666989 0.357448
73 1 0.666214 0.999767 0.0635365
74 1 0.777298 0.221946 0.0323211
75 1 0.777287 0.221901 0.133719
76 1 0.888368 0.110822 0.0722284
77 1 0.888421 0.110813 0.202382
78 1 0.666319 0.999836 0.148076
79 1 0.66647 0.999722 0.273994
80 1 0.777251 0.221871 0.219459
81 1 0.777416 0.221851 0.350305
82 1 0.888556 0.11081 0.288294
83 1 0.889144 0.110816 0.390035
84 1 0.666359 0.999529 0.358966
85 1 0.666196 0.333045 0.0634872
86 1 0.777377 0.555302 0.0323326
87 1 0.777375 0.555227 0.133635
88 1 0.888396 0.444157 0.0722405
89 1 0.888419 0.444022 0.202489
90 1 0.666385 0.333017 0.14806
91 1 0.665653 0.332737 0.273698
92 1 0.777588 0.555103 0.219276
93 1 0.776085 0.554203 0.350486
94 1 0.888109 0.444005 0.288437
95 1 0.888607 0.443996 0.390145
96 1 0.666158 0.333367 0.358448
97 1 0.666239 0.666419 0.0634223
98 1 0.77726 0.888543 0.0323181
99 1 0.77733 0.888632 0.13364
100 1 0.888459 0.777489 0.0722534
101 1 0.888616 0.77748 0.202343
102 1 0.666478 0.666357 0.147936
103 1 0.666246 0.665684 0.272554
104 1 0.777775 0.88884 0.219332
105 1 0.778072 0.889434 0.349995
106 1 0.889333 0.777729 0.28831
107 1 0.889011 0.777462 0.390985
108 1 0.671359 0.669874 0.356571
ITEM: TIMESTEP
10
ITEM: NUMBER OF ATOMS
108
ITEM: BOX BOUNDS xy xz yz pp pp pp
-7.2075420000000001e+00 1.4415084000000000e+01 -7.2075420000000001e+00
0.0000000000000000e+00 1.2483828000000001e+01 0.0000000000000000e+00
0.0000000000000000e+00 3.1116254000000001e+01 0.0000000000000000e+00
ITEM: ATOMS id type xs ys zs
1 1 0.992321 0.00314485 0.0695304
2 1 0.106027 0.215603 0.0491412
3 1 0.106917 0.227504 0.133038
4 1 0.207951 0.111917 0.0973125
5 1 0.219519 0.100851 0.174752
6 1 0.985352 0.011337 0.167751
7 1 0.985594 0.961764 0.248584
8 1 0.0920586 0.18615 0.244016
9 1 0.113484 0.239073 0.321217
10 1 0.223382 0.104702 0.282646
11 1 0.234516 0.118526 0.373743
12 1 0.0200919 0.0165132 0.345186
13 1 0.998146 0.324892 0.0759933
14 1 0.10682 0.555727 0.0481547
15 1 0.117062 0.555977 0.14091
16 1 0.234882 0.439564 0.107078
17 1 0.214233 0.428967 0.185153
18 1 0.988019 0.343216 0.171492
19 1 0.993953 0.313954 0.251302
20 1 0.124496 0.563138 0.237891
21 1 0.115373 0.563345 0.327609
22 1 0.231583 0.458575 0.296807
23 1 0.195565 0.425227 0.381756
24 1 0.993412 0.329274 0.347223
25 1 0.99566 0.673203 0.0784628
26 1 0.113113 0.901078 0.0482131
27 1 0.109841 0.894458 0.128025
28 1 0.2134 0.774375 0.108545
29 1 0.233952 0.779615 0.194943
30 1 0.0323311 0.700173 0.168419
31 1 0.981592 0.633005 0.249813
32 1 0.114984 0.87028 0.250846
33 1 0.11046 0.900318 0.32667
34 1 0.204026 0.775132 0.286524
35 1 0.231044 0.780742 0.376848
36 1 0.00491119 0.68239 0.336287
37 1 0.330842 0.982954 0.0816909
38 1 0.44436 0.209918 0.0399302
39 1 0.429958 0.205808 0.13375
40 1 0.561904 0.121777 0.086518
41 1 0.55129 0.103497 0.164279
42 1 0.32927 0.986975 0.164532
43 1 0.336839 0.0029954 0.250901
44 1 0.446161 0.223013 0.245431
45 1 0.440054 0.218354 0.32659
46 1 0.553168 0.118906 0.289556
47 1 0.566435 0.104336 0.370657
48 1 0.338243 0.998549 0.338265
49 1 0.322027 0.320885 0.0691152
50 1 0.435424 0.544869 0.0397696
51 1 0.447471 0.572391 0.132984
52 1 0.550458 0.44289 0.1083
53 1 0.549324 0.4272 0.184141
54 1 0.327975 0.325701 0.164219
55 1 0.330918 0.345473 0.248723
56 1 0.423951 0.562557 0.228918
57 1 0.466965 0.564334 0.308301
58 1 0.557387 0.425395 0.283343
59 1 0.551246 0.453458 0.367045
60 1 0.325624 0.344019 0.342321
61 1 0.335162 0.670046 0.0812763
62 1 0.455346 0.885171 0.042234
63 1 0.465082 0.91035 0.128435
64 1 0.552362 0.787254 0.0923905
65 1 0.560043 0.781199 0.186498
66 1 0.347673 0.67811 0.178269
67 1 0.342113 0.689274 0.260038
68 1 0.465542 0.896982 0.250287
69 1 0.435984 0.873039 0.325427
70 1 0.561821 0.787143 0.291556
71 1 0.572808 0.781093 0.379351
72 1 0.342122 0.643455 0.355867
73 1 0.670008 0.0106462 0.0769126
74 1 0.781663 0.227147 0.0454768
75 1 0.76381 0.214096 0.131312
76 1 0.881923 0.104881 0.109606
77 1 0.893038 0.122781 0.191315
78 1 0.683479 0.991578 0.170667
79 1 0.682729 0.0197163 0.250514
80 1 0.767914 0.238012 0.240758
81 1 0.774686 0.205244 0.32
82 1 0.895363 0.0937653 0.294423
83 1 0.884305 0.111402 0.378975
84 1 0.673334 0.994425 0.338618
85 1 0.662648 0.345629 0.0751034
86 1 0.777848 0.568071 0.0468826
87 1 0.786512 0.552507 0.136019
88 1 0.888859 0.451928 0.0919096
89 1 0.889105 0.463151 0.170994
90 1 0.661554 0.326413 0.168177
91 1 0.666063 0.349045 0.246335
92 1 0.767694 0.56624 0.240018
93 1 0.769161 0.542893 0.324283
94 1 0.894456 0.423618 0.289061
95 1 0.899054 0.466846 0.37122
96 1 0.669494 0.338082 0.341116
97 1 0.659787 0.665396 0.0807046
98 1 0.763852 0.892505 0.0397298
99 1 0.762889 0.861455 0.127677
100 1 0.890443 0.782226 0.106581
101 1 0.89251 0.791273 0.183804
102 1 0.661642 0.662014 0.177713
103 1 0.64207 0.65255 0.259162
104 1 0.773749 0.893117 0.240974
105 1 0.785881 0.875063 0.317791
106 1 0.869838 0.748767 0.294474
107 1 0.90229 0.798189 0.375068
108 1 0.676281 0.665587 0.352783
ITEM: TIMESTEP
20
ITEM: NUMBER OF ATOMS
108
ITEM: BOX BOUNDS xy xz yz pp pp pp
-7.2075420000000001e+00 1.4415084000000000e+01 -7.2075420000000001e+00
0.0000000000000000e+00 1.2483828000000001e+01 0.0000000000000000e+00
0.0000000000000000e+00 3.1116254000000001e+01 0.0000000000000000e+00
ITEM: ATOMS id type xs ys zs
1 1 0.969475 0.976839 0.083227
2 1 0.104993 0.214315 0.0735238
3 1 0.0960926 0.241286 0.147676
4 1 0.213738 0.102005 0.0973294
5 1 0.241746 0.123255 0.183675
6 1 0.966207 0.00471137 0.181158
7 1 0.999312 0.936004 0.256077
8 1 0.0729252 0.148148 0.238313
9 1 0.123743 0.25402 0.31845
10 1 0.234893 0.137789 0.27678
11 1 0.225093 0.127867 0.351868
12 1 0.028558 0.0433594 0.332986
13 1 0.0109282 0.334512 0.0929859
14 1 0.111878 0.548606 0.0855699
15 1 0.113182 0.578116 0.158443
16 1 0.226635 0.438549 0.106845
17 1 0.198279 0.404772 0.193
18 1 0.992785 0.362258 0.187929
19 1 0.0454814 0.294189 0.254158
20 1 0.0992346 0.51175 0.240402
21 1 0.123859 0.569286 0.323295
22 1 0.242296 0.468501 0.293307
23 1 0.182033 0.429222 0.364258
24 1 0.983933 0.352906 0.336841
25 1 0.0143988 0.669321 0.0767842
26 1 0.0941952 0.885967 0.0717736
27 1 0.0907897 0.916542 0.148099
28 1 0.229769 0.790329 0.115534
29 1 0.247575 0.769596 0.210549
30 1 0.993991 0.669521 0.164626
31 1 0.996161 0.643504 0.256656
32 1 0.106423 0.83979 0.233304
33 1 0.127198 0.921284 0.321065
34 1 0.206067 0.808193 0.290282
35 1 0.202008 0.747032 0.373501
36 1 0.00646866 0.693086 0.333519
37 1 0.315446 0.980512 0.0602644
38 1 0.429235 0.211526 0.0679666
39 1 0.444293 0.212074 0.141958
40 1 0.552649 0.122843 0.0748904
41 1 0.572247 0.0994199 0.169577
42 1 0.325609 0.975474 0.161204
43 1 0.306094 0.97968 0.249313
44 1 0.419157 0.213595 0.233618
45 1 0.450871 0.214979 0.324113
46 1 0.56339 0.151336 0.257512
47 1 0.543784 0.0698138 0.334144
48 1 0.341336 0.984168 0.342089
49 1 0.349339 0.345829 0.0679695
50 1 0.437675 0.566522 0.0744088
51 1 0.473444 0.562023 0.153302
52 1 0.566651 0.458526 0.106489
53 1 0.542879 0.410679 0.187047
54 1 0.340211 0.351736 0.15754
55 1 0.322716 0.339873 0.240278
56 1 0.429258 0.581892 0.235594
57 1 0.460242 0.578974 0.317328
58 1 0.540832 0.475437 0.270269
59 1 0.570261 0.432693 0.352005
60 1 0.345118 0.33931 0.32748
61 1 0.333653 0.669937 0.0857654
62 1 0.43493 0.884666 0.07518
63 1 0.431396 0.844587 0.146852
64 1 0.545359 0.78868 0.105783
65 1 0.55324 0.754673 0.187392
66 1 0.324126 0.641489 0.182451
67 1 0.333396 0.699745 0.265874
68 1 0.475137 0.928176 0.232451
69 1 0.45744 0.85938 0.331355
70 1 0.568119 0.835968 0.268554
71 1 0.565523 0.74573 0.345755
72 1 0.342346 0.631139 0.362069
73 1 0.664228 0.0210415 0.0804648
74 1 0.783518 0.237274 0.0578917
75 1 0.801992 0.211417 0.12885
76 1 0.891724 0.107153 0.114131
77 1 0.874973 0.1582 0.19626
78 1 0.675325 0.975277 0.171042
79 1 0.691 0.0533404 0.248385
80 1 0.773586 0.262473 0.213585
81 1 0.76682 0.191652 0.304961
82 1 0.881255 0.0658493 0.274746
83 1 0.888769 0.131871 0.352983
84 1 0.680468 0.983685 0.334441
85 1 0.654686 0.35955 0.0651208
86 1 0.769962 0.572776 0.0670699
87 1 0.790071 0.548356 0.142001
88 1 0.882145 0.442804 0.097154
89 1 0.882027 0.467545 0.191503
90 1 0.664157 0.326183 0.162607
91 1 0.68562 0.372282 0.247285
92 1 0.725903 0.551815 0.22968
93 1 0.776899 0.525074 0.302859
94 1 0.899945 0.395842 0.274532
95 1 0.889469 0.480048 0.348188
96 1 0.666964 0.296249 0.336018
97 1 0.652811 0.677965 0.0930983
98 1 0.751485 0.883813 0.0694159
99 1 0.780366 0.864355 0.139492
100 1 0.880829 0.76699 0.105092
101 1 0.892911 0.786324 0.184741
102 1 0.66626 0.666595 0.179553
103 1 0.65767 0.695707 0.26036
104 1 0.785723 0.894468 0.230767
105 1 0.796599 0.882975 0.314659
106 1 0.874323 0.727144 0.284557
107 1 0.925885 0.825962 0.354712
108 1 0.709245 0.659767 0.351112
ITEM: TIMESTEP
30
ITEM: NUMBER OF ATOMS
108
ITEM: BOX BOUNDS xy xz yz pp pp pp
-7.2075420000000001e+00 1.4415084000000000e+01 -7.2075420000000001e+00
0.0000000000000000e+00 1.2483828000000001e+01 0.0000000000000000e+00
0.0000000000000000e+00 3.1116254000000001e+01 0.0000000000000000e+00
ITEM: ATOMS id type xs ys zs
1 1 0.997112 0.966824 0.0932018
2 1 0.114106 0.193914 0.0742589
3 1 0.11111 0.264446 0.166708
4 1 0.25399 0.107657 0.107121
5 1 0.238945 0.140466 0.197717
6 1 0.971264 0.00249236 0.171375
7 1 0.968794 0.959917 0.259169
8 1 0.0848989 0.153373 0.242304
9 1 0.161851 0.279452 0.323378
10 1 0.258007 0.170731 0.292788
11 1 0.274593 0.140856 0.384904
12 1 0.0506245 0.0511534 0.334224
13 1 0.963277 0.275626 0.0949253
14 1 0.101442 0.532156 0.073673
15 1 0.0737655 0.576394 0.158419
16 1 0.2368 0.458819 0.117888
17 1 0.224632 0.428124 0.205874
18 1 0.981414 0.365057 0.177975
19 1 0.0391318 0.314751 0.253666
20 1 0.157617 0.546742 0.237634
21 1 0.134719 0.571657 0.341776
22 1 0.248072 0.475453 0.30579
23 1 0.214752 0.434613 0.390106
24 1 0.015683 0.358734 0.337602
25 1 0.947212 0.597845 0.0622995
26 1 0.0787091 0.843569 0.0573777
27 1 0.115646 0.958402 0.153242
28 1 0.177915 0.758028 0.10419
29 1 0.226488 0.785268 0.198105
30 1 0.010904 0.718336 0.154715
31 1 0.991065 0.622921 0.2659
32 1 0.0858331 0.823179 0.246415
33 1 0.140108 0.936769 0.315527
34 1 0.212168 0.776562 0.304312
35 1 0.198583 0.761165 0.407961
36 1 0.0231387 0.706636 0.350393
37 1 0.309845 0.0126822 0.0500484
38 1 0.416371 0.252417 0.0401209
39 1 0.456366 0.192692 0.147575
40 1 0.54068 0.151666 0.0675698
41 1 0.546608 0.0409581 0.168643
42 1 0.335556 0.977079 0.140717
43 1 0.342572 0.0606218 0.262113
44 1 0.451602 0.279639 0.232714
45 1 0.448074 0.183798 0.329383
46 1 0.544785 0.141192 0.238522
47 1 0.558496 0.0618313 0.320296
48 1 0.310775 0.960307 0.360771
49 1 0.315378 0.367419 0.0352391
50 1 0.461336 0.578344 0.0706836
51 1 0.42997 0.521949 0.151425
52 1 0.52935 0.413722 0.0863533
53 1 0.557808 0.426675 0.171433
54 1 0.328474 0.301696 0.127213
55 1 0.32067 0.334703 0.247179
56 1 0.426078 0.570431 0.247992
57 1 0.492655 0.560383 0.349779
58 1 0.540298 0.455194 0.279351
59 1 0.566794 0.397045 0.352322
60 1 0.361749 0.311761 0.341042
61 1 0.329143 0.703321 0.0959824
62 1 0.437618 0.913843 0.0846821
63 1 0.439312 0.852066 0.17299
64 1 0.576921 0.800736 0.0938547
65 1 0.535498 0.726476 0.187927
66 1 0.302631 0.638773 0.176741
67 1 0.345091 0.698133 0.268725
68 1 0.405622 0.91155 0.245019
69 1 0.431767 0.8583 0.333606
70 1 0.553316 0.837721 0.27471
71 1 0.590095 0.782737 0.363634
72 1 0.331308 0.650078 0.373838
73 1 0.658839 0.045091 0.0753501
74 1 0.782645 0.243271 0.0285134
75 1 0.759037 0.204623 0.124731
76 1 0.865752 0.0711923 0.102599
77 1 0.849751 0.134151 0.18567
78 1 0.666082 0.950443 0.158776
79 1 0.663247 0.0302809 0.23405
80 1 0.75525 0.254287 0.212467
81 1 0.796362 0.19765 0.303438
82 1 0.890815 0.0936367 0.273667
83 1 0.916365 0.138763 0.361676
84 1 0.708561 0.994795 0.330185
85 1 0.674675 0.368247 0.0508249
86 1 0.758865 0.56638 0.0341942
87 1 0.737493 0.549676 0.125455
88 1 0.879021 0.420908 0.11156
89 1 0.846787 0.472037 0.192497
90 1 0.665808 0.322359 0.138546
91 1 0.656658 0.367336 0.238764
92 1 0.7758 0.573651 0.224514
93 1 0.788429 0.513337 0.312207
94 1 0.899101 0.404618 0.276717
95 1 0.934831 0.488115 0.360052
96 1 0.698932 0.300055 0.331297
97 1 0.669637 0.659487 0.0867804
98 1 0.780287 0.932409 0.0394249
99 1 0.790896 0.853893 0.124639
100 1 0.88591 0.743046 0.101842
101 1 0.898064 0.790014 0.198064
102 1 0.649809 0.645157 0.179572
103 1 0.637857 0.676736 0.269729
104 1 0.740348 0.86787 0.223587
105 1 0.822767 0.897643 0.315594
106 1 0.868661 0.735361 0.289648
107 1 0.938776 0.827689 0.361864
108 1 0.698253 0.649103 0.34734
ITEM: TIMESTEP
40
ITEM: NUMBER OF ATOMS
108
ITEM: BOX BOUNDS xy xz yz pp pp pp
-7.2075420000000001e+00 1.4415084000000000e+01 -7.2075420000000001e+00
0.0000000000000000e+00 1.2483828000000001e+01 0.0000000000000000e+00
0.0000000000000000e+00 3.1116254000000001e+01 0.0000000000000000e+00
ITEM: ATOMS id type xs ys zs
1 1 0.986915 0.953727 0.0826537
2 1 0.135476 0.194791 0.0760947
3 1 0.0720392 0.257563 0.168327
4 1 0.214683 0.0586771 0.102157
5 1 0.226362 0.110844 0.196814
6 1 0.976279 0.0385815 0.176894
7 1 0.00602322 0.952283 0.263008
8 1 0.0993414 0.181353 0.2453
9 1 0.147353 0.267977 0.332079
10 1 0.264803 0.157 0.296102
11 1 0.238166 0.0965062 0.376919
12 1 0.993844 0.0243655 0.338998
13 1 0.00852821 0.296695 0.086363
14 1 0.103977 0.520073 0.0693007
15 1 0.0739138 0.580288 0.155256
16 1 0.227924 0.433297 0.112224
17 1 0.204007 0.426749 0.207868
18 1 0.997844 0.386256 0.165176
19 1 0.0343951 0.333903 0.258774
20 1 0.112786 0.545856 0.246607
21 1 0.176927 0.617479 0.337705
22 1 0.242318 0.482189 0.29821
23 1 0.268148 0.423961 0.395502
24 1 0.0443129 0.388392 0.344425
25 1 0.957134 0.602178 0.0784835
26 1 0.0867577 0.829833 0.0659746
27 1 0.124445 0.922563 0.170386
28 1 0.20916 0.746216 0.109679
29 1 0.201892 0.766585 0.203465
30 1 0.973009 0.697564 0.16354
31 1 0.942269 0.610741 0.259066
32 1 0.0738394 0.813583 0.242626
33 1 0.125837 0.910417 0.332601
34 1 0.208988 0.79258 0.289262
35 1 0.214868 0.784267 0.384612
36 1 0.0133497 0.697144 0.346646
37 1 0.339207 0.999981 0.0457719
38 1 0.387844 0.232559 0.0495011
39 1 0.418088 0.195878 0.150529
40 1 0.56495 0.160605 0.0748499
41 1 0.543321 0.0843629 0.152517
42 1 0.336326 0.962935 0.145822
43 1 0.283421 0.983834 0.276776
44 1 0.43047 0.264044 0.243824
45 1 0.450951 0.207086 0.335469
46 1 0.540765 0.138822 0.243094
47 1 0.562 0.0503827 0.313406
48 1 0.37558 0.995704 0.355875
49 1 0.294256 0.376306 0.0394975
50 1 0.429166 0.579176 0.068624
51 1 0.414365 0.496901 0.173875
52 1 0.53162 0.468092 0.0672006
53 1 0.5381 0.401194 0.173633
54 1 0.333225 0.318394 0.116805
55 1 0.30934 0.357209 0.270611
56 1 0.467094 0.600694 0.254649
57 1 0.50445 0.568499 0.351069
58 1 0.553028 0.47017 0.283214
59 1 0.63537 0.43689 0.368062
60 1 0.369594 0.331275 0.350705
61 1 0.334894 0.685768 0.0972895
62 1 0.459433 0.935378 0.0804416
63 1 0.426648 0.853397 0.16747
64 1 0.557557 0.808749 0.0787153
65 1 0.515947 0.717968 0.183804
66 1 0.274615 0.634743 0.179521
67 1 0.31564 0.699988 0.268912
68 1 0.4359 0.924219 0.256976
69 1 0.412573 0.841016 0.346821
70 1 0.551235 0.808936 0.274906
71 1 0.610939 0.799742 0.363873
72 1 0.373716 0.652073 0.357714
73 1 0.657585 0.0134492 0.0451604
74 1 0.792259 0.221402 0.040588
75 1 0.759828 0.155784 0.129233
76 1 0.873808 0.0846621 0.0982725
77 1 0.872995 0.165247 0.203645
78 1 0.646814 0.960737 0.15665
79 1 0.673452 0.0356611 0.238578
80 1 0.763663 0.265621 0.206342
81 1 0.841618 0.195102 0.294066
82 1 0.880905 0.0384735 0.271448
83 1 0.910561 0.141739 0.359168
84 1 0.709966 0.995634 0.340063
85 1 0.700419 0.360952 0.0424526
86 1 0.743875 0.611215 0.0181289
87 1 0.734036 0.509653 0.102273
88 1 0.870755 0.392288 0.0995603
89 1 0.846894 0.508034 0.177461
90 1 0.673358 0.301012 0.142762
91 1 0.691244 0.406726 0.236004
92 1 0.76474 0.599395 0.231135
93 1 0.780065 0.530782 0.310942
94 1 0.898217 0.406725 0.279977
95 1 0.934334 0.470988 0.373975
96 1 0.692571 0.287428 0.307503
97 1 0.638469 0.681437 0.0772027
98 1 0.780596 0.909348 0.0400478
99 1 0.762701 0.856023 0.126802
100 1 0.85747 0.730655 0.0907864
101 1 0.896816 0.81864 0.173807
102 1 0.666637 0.651975 0.16054
103 1 0.671338 0.70652 0.276174
104 1 0.748124 0.883472 0.214686
105 1 0.796556 0.865694 0.323144
106 1 0.890575 0.750566 0.302204
107 1 0.951978 0.851106 0.386118
108 1 0.720589 0.659745 0.361126
ITEM: TIMESTEP
50
ITEM: NUMBER OF ATOMS
108
ITEM: BOX BOUNDS xy xz yz pp pp pp
-7.2075420000000001e+00 1.4415084000000000e+01 -7.2075420000000001e+00
0.0000000000000000e+00 1.2483828000000001e+01 0.0000000000000000e+00
0.0000000000000000e+00 3.1116254000000001e+01 0.0000000000000000e+00
ITEM: ATOMS id type xs ys zs
1 1 0.968854 0.94718 0.112792
2 1 0.13561 0.2058 0.0855154
3 1 0.0796689 0.24152 0.154433
4 1 0.20999 0.0948889 0.119559
5 1 0.221064 0.14323 0.198841
6 1 0.980399 0.0404321 0.180588
7 1 0.0278394 0.974047 0.248617
8 1 0.09903 0.198705 0.240008
9 1 0.168662 0.25134 0.330164
10 1 0.233836 0.127878 0.291077
11 1 0.219672 0.111462 0.378734
12 1 0.0158013 0.0277173 0.340634
13 1 0.0212381 0.329599 0.0825178
14 1 0.118584 0.54214 0.0994092
15 1 0.0608966 0.589543 0.169271
16 1 0.209853 0.427658 0.127881
17 1 0.197433 0.384228 0.214287
18 1 0.996495 0.359729 0.17872
19 1 0.00722828 0.307638 0.270984
20 1 0.099653 0.532207 0.241158
21 1 0.127455 0.588779 0.330431
22 1 0.23017 0.470084 0.292608
23 1 0.286343 0.433118 0.368463
24 1 0.0591927 0.396796 0.354892
25 1 0.982835 0.63313 0.0839526
26 1 0.0773943 0.861632 0.0864011
27 1 0.0815759 0.915688 0.171673
28 1 0.211927 0.77278 0.122365
29 1 0.22505 0.809381 0.208976
30 1 0.932454 0.692284 0.163679
31 1 0.926947 0.60668 0.237349
32 1 0.0624559 0.81604 0.244404
33 1 0.132058 0.918585 0.327759
34 1 0.176965 0.754178 0.286158
35 1 0.23956 0.839904 0.37179
36 1 0.00913986 0.698279 0.33706
37 1 0.309118 0.982499 0.0706434
38 1 0.403529 0.198915 0.0772644
39 1 0.444248 0.185604 0.161736
40 1 0.562052 0.123942 0.0699058
41 1 0.531957 0.0759096 0.172206
42 1 0.289997 0.985864 0.161
43 1 0.3054 0.0296278 0.238687
44 1 0.416436 0.264291 0.223218
45 1 0.497699 0.223953 0.311897
46 1 0.529946 0.14999 0.246773
47 1 0.58838 0.0751818 0.317259
48 1 0.345458 0.0452366 0.338066
49 1 0.317819 0.342486 0.0465775
50 1 0.419695 0.530692 0.0981391
51 1 0.457916 0.54439 0.180766
52 1 0.522798 0.41356 0.0627906
53 1 0.565167 0.440861 0.164434
54 1 0.330719 0.324457 0.145634
55 1 0.358921 0.386001 0.261888
56 1 0.449531 0.599416 0.259607
57 1 0.49572 0.518072 0.344486
58 1 0.568078 0.458266 0.277766
59 1 0.568646 0.39035 0.374044
60 1 0.378974 0.297863 0.332934
61 1 0.333827 0.677311 0.0955033
62 1 0.430036 0.913578 0.0903182
63 1 0.386371 0.824493 0.162633
64 1 0.565972 0.789013 0.0926132
65 1 0.533068 0.740274 0.175133
66 1 0.294269 0.609465 0.180613
67 1 0.326937 0.689184 0.256613
68 1 0.443589 0.943845 0.248099
69 1 0.451417 0.856679 0.330133
70 1 0.59233 0.82008 0.266841
71 1 0.593453 0.74955 0.34536
72 1 0.393916 0.661085 0.335081
73 1 0.693098 0.00876519 0.0727167
74 1 0.820968 0.240516 0.0512059
75 1 0.796063 0.194345 0.133886
76 1 0.920575 0.103434 0.0733494
77 1 0.880469 0.148907 0.197194
78 1 0.606677 0.974257 0.139317
79 1 0.672185 0.0422302 0.240471
80 1 0.751322 0.252582 0.209913
81 1 0.813684 0.206665 0.300162
82 1 0.898757 0.0722097 0.274152
83 1 0.941809 0.178327 0.350189
84 1 0.72522 0.998149 0.33224
85 1 0.70648 0.373152 0.0443549
86 1 0.733587 0.56122 0.0309245
87 1 0.752007 0.503312 0.111632
88 1 0.887176 0.423218 0.0974363
89 1 0.846941 0.444239 0.181013
90 1 0.632037 0.274895 0.12796
91 1 0.672048 0.386838 0.230682
92 1 0.741968 0.598675 0.216564
93 1 0.781181 0.536746 0.309334
94 1 0.892789 0.422477 0.268079
95 1 0.899052 0.455868 0.354415
96 1 0.713652 0.327481 0.316437
97 1 0.616938 0.641253 0.0560163
98 1 0.802776 0.879428 0.0477967
99 1 0.782527 0.945149 0.135573
100 1 0.854801 0.726919 0.0997188
101 1 0.844048 0.814589 0.188268
102 1 0.64019 0.658291 0.145064
103 1 0.666055 0.67339 0.285924
104 1 0.742945 0.889318 0.225191
105 1 0.809743 0.874592 0.318695
106 1 0.899539 0.764493 0.289266
107 1 0.946827 0.810964 0.388835
108 1 0.742503 0.656175 0.365162
ITEM: TIMESTEP
60
ITEM: NUMBER OF ATOMS
108
ITEM: BOX BOUNDS xy xz yz pp pp pp
-7.2075420000000001e+00 1.4415084000000000e+01 -7.2075420000000001e+00
0.0000000000000000e+00 1.2483828000000001e+01 0.0000000000000000e+00
0.0000000000000000e+00 3.1116254000000001e+01 0.0000000000000000e+00
ITEM: ATOMS id type xs ys zs
1 1 0.00238672 0.0124785 0.101925
2 1 0.135431 0.218559 0.0661425
3 1 0.0665646 0.226049 0.156143
4 1 0.223211 0.124716 0.106639
5 1 0.203322 0.145213 0.200709
6 1 0.959022 0.0378954 0.193119
7 1 0.975931 0.93875 0.259618
8 1 0.0885793 0.214309 0.239049
9 1 0.153375 0.276455 0.334514
10 1 0.199052 0.136423 0.285303
11 1 0.233517 0.132876 0.370484
12 1 0.0457179 0.0646275 0.340932
13 1 0.0279062 0.33408 0.0956485
14 1 0.131018 0.556376 0.120049
15 1 0.0609056 0.635115 0.182013
16 1 0.268916 0.436098 0.102896
17 1 0.198206 0.410042 0.199726
18 1 0.993669 0.376759 0.179095
19 1 0.0103157 0.329667 0.282093
20 1 0.122137 0.548746 0.237248
21 1 0.16037 0.600623 0.334895
22 1 0.219056 0.484535 0.29431
23 1 0.29188 0.451802 0.375544
24 1 0.06208 0.362695 0.370827
25 1 0.971636 0.638632 0.0884819
26 1 0.0402258 0.846738 0.101149
27 1 0.0848058 0.931858 0.172818
28 1 0.205255 0.780397 0.110708
29 1 0.229741 0.795184 0.202224
30 1 0.918703 0.699586 0.17539
31 1 0.963026 0.572029 0.264757
32 1 0.0638418 0.794803 0.234728
33 1 0.149941 0.935604 0.301992
34 1 0.232594 0.819194 0.283244
35 1 0.236155 0.806138 0.365114
36 1 0.995371 0.694491 0.327235
37 1 0.286908 0.987983 0.0594542
38 1 0.46063 0.195995 0.0658144
39 1 0.443144 0.194607 0.163353
40 1 0.60067 0.108703 0.0845368
41 1 0.529811 0.0474131 0.156889
42 1 0.330076 0.964794 0.148233
43 1 0.308906 0.0162871 0.231068
44 1 0.40569 0.255382 0.233079
45 1 0.501989 0.256165 0.298076
46 1 0.514558 0.135204 0.22751
47 1 0.573177 0.106298 0.326831
48 1 0.369359 0.024148 0.315134
49 1 0.371061 0.326353 0.0769475
50 1 0.491794 0.535484 0.108713
51 1 0.446137 0.480136 0.204281
52 1 0.612383 0.441332 0.0786444
53 1 0.559941 0.405157 0.170257
54 1 0.315829 0.308098 0.157119
55 1 0.308842 0.363329 0.269418
56 1 0.432533 0.595695 0.272082
57 1 0.488238 0.538706 0.337982
58 1 0.562753 0.4767 0.277161
59 1 0.591531 0.415741 0.365944
60 1 0.377059 0.319089 0.342489
61 1 0.372694 0.672255 0.097578
62 1 0.44236 0.895025 0.0940281
63 1 0.393985 0.814811 0.166228
64 1 0.577356 0.792477 0.0888795
65 1 0.576162 0.722988 0.208878
66 1 0.323993 0.623113 0.174409
67 1 0.338139 0.699434 0.252463
68 1 0.436279 0.950714 0.244873
69 1 0.434206 0.879022 0.341153
70 1 0.52028 0.823685 0.281512
71 1 0.586688 0.756426 0.357098
72 1 0.371642 0.667819 0.340097
73 1 0.675858 0.986624 0.0602323
74 1 0.807122 0.245318 0.0338101
75 1 0.793461 0.182399 0.114825
76 1 0.908197 0.123644 0.0756257
77 1 0.869623 0.15485 0.196682
78 1 0.623552 0.931488 0.17026
79 1 0.638048 0.0442725 0.250879
80 1 0.723443 0.220608 0.197598
81 1 0.800649 0.207706 0.319051
82 1 0.874869 0.0830477 0.28698
83 1 0.924162 0.154516 0.36783
84 1 0.69431 0.979045 0.320862
85 1 0.643539 0.291588 0.0421979
86 1 0.792866 0.530329 0.0355482
87 1 0.776656 0.531963 0.125307
88 1 0.884369 0.42783 0.100939
89 1 0.844208 0.458832 0.186019
90 1 0.671309 0.303292 0.137744
91 1 0.652843 0.361872 0.238962
92 1 0.726238 0.573498 0.202159
93 1 0.755368 0.524326 0.295916
94 1 0.859513 0.358291 0.261657
95 1 0.929196 0.46789 0.346877
96 1 0.736091 0.345883 0.321764
97 1 0.604778 0.620405 0.0372676
98 1 0.762861 0.868397 0.0554191
99 1 0.806348 0.97117 0.130434
100 1 0.806336 0.705481 0.0874515
101 1 0.827914 0.817502 0.181346
102 1 0.648358 0.676487 0.14161
103 1 0.652245 0.684197 0.266976
104 1 0.74155 0.908406 0.231364
105 1 0.801857 0.859574 0.315676
106 1 0.875242 0.735751 0.257462
107 1 0.954683 0.836319 0.355473
108 1 0.697027 0.630427 0.353758
ITEM: TIMESTEP
70
ITEM: NUMBER OF ATOMS
108
ITEM: BOX BOUNDS xy xz yz pp pp pp
-7.2075420000000001e+00 1.4415084000000000e+01 -7.2075420000000001e+00
0.0000000000000000e+00 1.2483828000000001e+01 0.0000000000000000e+00
0.0000000000000000e+00 3.1116254000000001e+01 0.0000000000000000e+00
ITEM: ATOMS id type xs ys zs
1 1 0.0232325 0.0181606 0.110233
2 1 0.160929 0.23092 0.055346
3 1 0.0962934 0.228969 0.137678
4 1 0.234328 0.0815426 0.0971426
5 1 0.182602 0.138365 0.188406
6 1 0.963196 0.0480882 0.190905
7 1 0.008404 0.940934 0.253163
8 1 0.0916233 0.216122 0.25458
9 1 0.133847 0.255733 0.348017
10 1 0.210067 0.145857 0.287744
11 1 0.298582 0.10894 0.36601
12 1 0.00849035 0.0517571 0.336916
13 1 0.0070596 0.327176 0.0903646
14 1 0.15312 0.536093 0.12958
15 1 0.04209 0.608734 0.177566
16 1 0.240019 0.416684 0.106563
17 1 0.171145 0.373673 0.194825
18 1 0.934921 0.381126 0.174558
19 1 0.995794 0.312976 0.294582
20 1 0.144315 0.524788 0.217499
21 1 0.143443 0.600489 0.313515
22 1 0.209449 0.462993 0.312306
23 1 0.262753 0.466458 0.396787
24 1 0.0817885 0.440419 0.377458
25 1 0.995012 0.618178 0.0957646
26 1 0.0799781 0.878631 0.0745675
27 1 0.100922 0.885778 0.16799
28 1 0.217417 0.746571 0.0993203
29 1 0.239331 0.781022 0.18853
30 1 0.910147 0.705033 0.16608
31 1 0.0147418 0.59299 0.253395
32 1 0.069539 0.793427 0.237558
33 1 0.12618 0.930163 0.320877
34 1 0.239547 0.835811 0.29704
35 1 0.198237 0.821534 0.387672
36 1 0.0259383 0.705116 0.324864
37 1 0.265578 0.931469 0.0483548
38 1 0.448975 0.138542 0.0568245
39 1 0.415087 0.18248 0.160343
40 1 0.647764 0.143527 0.0688218
41 1 0.543394 0.0650264 0.162757
42 1 0.311333 0.950488 0.138643
43 1 0.242102 0.98374 0.238592
44 1 0.401605 0.263034 0.229809
45 1 0.471898 0.241179 0.319898
46 1 0.490457 0.126435 0.246839
47 1 0.579837 0.102304 0.324503
48 1 0.368365 0.020922 0.302865
49 1 0.376049 0.302135 0.0810589
50 1 0.464255 0.532883 0.119617
51 1 0.44981 0.485525 0.203825
52 1 0.610628 0.459184 0.0644507
53 1 0.537599 0.396163 0.156981
54 1 0.313293 0.315622 0.15533
55 1 0.308656 0.379434 0.260959
56 1 0.420711 0.602614 0.278548
57 1 0.517229 0.590636 0.351346
58 1 0.501536 0.444567 0.279822
59 1 0.619785 0.464623 0.347413
60 1 0.373919 0.359327 0.352232
61 1 0.346 0.645734 0.0821667
62 1 0.446596 0.93286 0.0645387
63 1 0.418157 0.809379 0.140469
64 1 0.592608 0.780529 0.111927
65 1 0.545809 0.718991 0.194311
66 1 0.340174 0.578796 0.176476
67 1 0.325473 0.704038 0.259024
68 1 0.443226 0.929162 0.232309
69 1 0.445803 0.903495 0.352257
70 1 0.535366 0.824629 0.276835
71 1 0.611227 0.790003 0.34883
72 1 0.353055 0.67109 0.360214
73 1 0.699927 0.00584865 0.0522954
74 1 0.849717 0.246506 0.0425582
75 1 0.791168 0.155073 0.128611
76 1 0.926709 0.100147 0.0497413
77 1 0.871435 0.19548 0.212855
78 1 0.623934 0.928053 0.184493
79 1 0.684376 0.0653622 0.260139
80 1 0.713285 0.261154 0.185936
81 1 0.805495 0.217586 0.321364
82 1 0.886935 0.086958 0.274258
83 1 0.910621 0.136388 0.390487
84 1 0.682341 0.0128982 0.362434
85 1 0.701566 0.33413 0.0227557
86 1 0.862667 0.549582 0.038503
87 1 0.737971 0.51271 0.133699
88 1 0.81687 0.3452 0.107403
89 1 0.821592 0.497125 0.197887
90 1 0.609954 0.283998 0.11736
91 1 0.638927 0.359593 0.245822
92 1 0.663038 0.567946 0.216822
93 1 0.799234 0.506985 0.29614
94 1 0.825642 0.348945 0.265773
95 1 0.928361 0.464426 0.326154
96 1 0.689759 0.32789 0.343878
97 1 0.645555 0.659905 0.0497319
98 1 0.802728 0.887848 0.0550727
99 1 0.793435 0.980687 0.126468
100 1 0.860548 0.700326 0.0750174
101 1 0.812245 0.816193 0.194585