 254 254   0   0
  0.2268316E+02  0.1514622E-08  0.1514622E-08  0.2900000E-08  0.5000000E-15
   1.0000000000000000E-004
  CAR 
 NiAl                                    
      6.11245675    -25.24639596  301     -0.53444620      1.00000000
    -25.246  0.0000E+00  0.0000E+00
    -25.142  0.0000E+00  0.0000E+00
    -25.037  0.0000E+00  0.0000E+00
    -24.933  0.0000E+00  0.0000E+00
    -24.828  0.0000E+00  0.0000E+00
    -24.724  0.0000E+00  0.0000E+00
    -24.619  0.0000E+00  0.0000E+00
    -24.515  0.0000E+00  0.0000E+00
    -24.410  0.0000E+00  0.0000E+00
    -24.306  0.0000E+00  0.0000E+00
    -24.201  0.0000E+00  0.0000E+00
    -24.097  0.6001E-13  0.6273E-14
    -23.992  0.1228E-04  0.1283E-05
    -23.888  0.5675E+00  0.5933E-01
    -23.783  0.1585E+02  0.1716E+01
    -23.678  0.2719E+01  0.2000E+01
    -23.574  0.5398E-03  0.2000E+01
    -23.469  0.2749E-10  0.2000E+01
    -23.365  0.0000E+00  0.2000E+01
    -23.260  0.0000E+00  0.2000E+01
    -23.156  0.0000E+00  0.2000E+01
    -23.051  0.0000E+00  0.2000E+01
    -22.947  0.0000E+00  0.2000E+01
    -22.842  0.0000E+00  0.2000E+01
    -22.738  0.0000E+00  0.2000E+01
    -22.633  0.0000E+00  0.2000E+01
    -22.529  0.0000E+00  0.2000E+01
    -22.424  0.0000E+00  0.2000E+01
    -22.320  0.0000E+00  0.2000E+01
    -22.215  0.0000E+00  0.2000E+01
    -22.111  0.0000E+00  0.2000E+01
    -22.006  0.0000E+00  0.2000E+01
    -21.901  0.0000E+00  0.2000E+01
    -21.797  0.0000E+00  0.2000E+01
    -21.692  0.0000E+00  0.2000E+01
    -21.588  0.0000E+00  0.2000E+01
    -21.483  0.0000E+00  0.2000E+01
    -21.379  0.0000E+00  0.2000E+01
    -21.274  0.0000E+00  0.2000E+01
    -21.170  0.0000E+00  0.2000E+01
    -21.065  0.0000E+00  0.2000E+01
    -20.961  0.0000E+00  0.2000E+01
    -20.856  0.0000E+00  0.2000E+01
    -20.752  0.0000E+00  0.2000E+01
    -20.647  0.0000E+00  0.2000E+01
    -20.543  0.0000E+00  0.2000E+01
    -20.438  0.0000E+00  0.2000E+01
    -20.334  0.0000E+00  0.2000E+01
    -20.229  0.0000E+00  0.2000E+01
    -20.124  0.0000E+00  0.2000E+01
    -20.020  0.0000E+00  0.2000E+01
    -19.915  0.0000E+00  0.2000E+01
    -19.811  0.0000E+00  0.2000E+01
    -19.706  0.0000E+00  0.2000E+01
    -19.602  0.0000E+00  0.2000E+01
    -19.497  0.0000E+00  0.2000E+01
    -19.393  0.0000E+00  0.2000E+01
    -19.288  0.0000E+00  0.2000E+01
    -19.184  0.0000E+00  0.2000E+01
    -19.079  0.0000E+00  0.2000E+01
    -18.975  0.0000E+00  0.2000E+01
    -18.870  0.0000E+00  0.2000E+01
    -18.766  0.0000E+00  0.2000E+01
    -18.661  0.0000E+00  0.2000E+01
    -18.557  0.0000E+00  0.2000E+01
    -18.452  0.0000E+00  0.2000E+01
    -18.347  0.0000E+00  0.2000E+01
    -18.243  0.0000E+00  0.2000E+01
    -18.138  0.0000E+00  0.2000E+01
    -18.034  0.0000E+00  0.2000E+01
    -17.929  0.0000E+00  0.2000E+01
    -17.825  0.0000E+00  0.2000E+01
    -17.720  0.0000E+00  0.2000E+01
    -17.616  0.0000E+00  0.2000E+01
    -17.511  0.0000E+00  0.2000E+01
    -17.407  0.0000E+00  0.2000E+01
    -17.302  0.5515E-09  0.2000E+01
    -17.198  0.3125E-02  0.2000E+01
    -17.093  0.5013E+01  0.2524E+01
    -16.989  0.1392E+02  0.3980E+01
    -16.884  0.1946E+00  0.4000E+01
    -16.780  0.1260E-05  0.4000E+01
    -16.675  0.2124E-14  0.4000E+01
    -16.570  0.0000E+00  0.4000E+01
    -16.466  0.0000E+00  0.4000E+01
    -16.361  0.0000E+00  0.4000E+01
    -16.257  0.0000E+00  0.4000E+01
    -16.152  0.0000E+00  0.4000E+01
    -16.048  0.0000E+00  0.4000E+01
    -15.943  0.0000E+00  0.4000E+01
    -15.839  0.0000E+00  0.4000E+01
    -15.734  0.0000E+00  0.4000E+01
    -15.630  0.0000E+00  0.4000E+01
    -15.525  0.0000E+00  0.4000E+01
    -15.421  0.0000E+00  0.4000E+01
    -15.316  0.0000E+00  0.4000E+01
    -15.212  0.0000E+00  0.4000E+01
    -15.107  0.0000E+00  0.4000E+01
    -15.003  0.0000E+00  0.4000E+01
    -14.898  0.0000E+00  0.4000E+01
    -14.793  0.0000E+00  0.4000E+01
    -14.689  0.0000E+00  0.4000E+01
    -14.584  0.0000E+00  0.4000E+01
    -14.480  0.0000E+00  0.4000E+01
    -14.375  0.0000E+00  0.4000E+01
    -14.271  0.0000E+00  0.4000E+01
    -14.166  0.0000E+00  0.4000E+01
    -14.062  0.0000E+00  0.4000E+01
    -13.957  0.0000E+00  0.4000E+01
    -13.853  0.0000E+00  0.4000E+01
    -13.748  0.0000E+00  0.4000E+01
    -13.644  0.0000E+00  0.4000E+01
    -13.539  0.0000E+00  0.4000E+01
    -13.435  0.0000E+00  0.4000E+01
    -13.330  0.0000E+00  0.4000E+01
    -13.226  0.0000E+00  0.4000E+01
    -13.121  0.0000E+00  0.4000E+01
    -13.016  0.0000E+00  0.4000E+01
    -12.912  0.0000E+00  0.4000E+01
    -12.807  0.0000E+00  0.4000E+01
    -12.703  0.0000E+00  0.4000E+01
    -12.598  0.0000E+00  0.4000E+01
    -12.494  0.0000E+00  0.4000E+01
    -12.389  0.0000E+00  0.4000E+01
    -12.285  0.0000E+00  0.4000E+01
    -12.180  0.0000E+00  0.4000E+01
    -12.076  0.0000E+00  0.4000E+01
    -11.971  0.0000E+00  0.4000E+01
    -11.867  0.0000E+00  0.4000E+01
    -11.762  0.0000E+00  0.4000E+01
    -11.658  0.0000E+00  0.4000E+01
    -11.553  0.0000E+00  0.4000E+01
    -11.449  0.0000E+00  0.4000E+01
    -11.344  0.0000E+00  0.4000E+01
    -11.239  0.0000E+00  0.4000E+01
    -11.135  0.0000E+00  0.4000E+01
    -11.030  0.0000E+00  0.4000E+01
    -10.926  0.0000E+00  0.4000E+01
    -10.821  0.0000E+00  0.4000E+01
    -10.717  0.0000E+00  0.4000E+01
    -10.612  0.0000E+00  0.4000E+01
    -10.508  0.0000E+00  0.4000E+01
    -10.403  0.0000E+00  0.4000E+01
    -10.299  0.0000E+00  0.4000E+01
    -10.194  0.0000E+00  0.4000E+01
    -10.090  0.0000E+00  0.4000E+01
     -9.985  0.0000E+00  0.4000E+01
     -9.881  0.0000E+00  0.4000E+01
     -9.776  0.0000E+00  0.4000E+01
     -9.671  0.0000E+00  0.4000E+01
     -9.567  0.0000E+00  0.4000E+01
     -9.462  0.0000E+00  0.4000E+01
     -9.358  0.7143E-12  0.4000E+01
     -9.253  0.3432E-04  0.4000E+01
     -9.149  0.3994E+00  0.4042E+01
     -9.044  0.4108E+01  0.4471E+01
     -8.940  0.1207E+01  0.4597E+01
     -8.835  0.2321E+02  0.7023E+01
     -8.731  0.5022E+01  0.7548E+01
     -8.626  0.1214E+02  0.8818E+01
     -8.522  0.7171E+01  0.9567E+01
     -8.417  0.1431E+02  0.1106E+02
     -8.313  0.3142E+02  0.1435E+02
     -8.208  0.2243E+02  0.1669E+02
     -8.104  0.2167E+02  0.1896E+02
     -7.999  0.4496E+00  0.1900E+02
     -7.894  0.1303E+02  0.2037E+02
     -7.790  0.1578E+02  0.2202E+02
     -7.685  0.1809E+02  0.2391E+02
     -7.581  0.2909E+02  0.2695E+02
     -7.476  0.6850E+02  0.3411E+02
     -7.372  0.1242E+02  0.3541E+02
     -7.267  0.1181E+02  0.3664E+02
     -7.163  0.2148E+02  0.3889E+02
     -7.058  0.6095E+02  0.4526E+02
     -6.954  0.4583E+02  0.5005E+02
     -6.849  0.2363E+02  0.5252E+02
     -6.745  0.9890E+01  0.5355E+02
     -6.640  0.2651E+02  0.5632E+02
     -6.536  0.2523E+02  0.5896E+02
     -6.431  0.3904E+02  0.6304E+02
     -6.327  0.6923E+02  0.7028E+02
     -6.222  0.4415E+02  0.7489E+02
     -6.117  0.2141E+02  0.7713E+02
     -6.013  0.4975E+02  0.8233E+02
     -5.908  0.1011E+03  0.9290E+02
     -5.804  0.2879E+02  0.9591E+02
     -5.699  0.1413E+01  0.9605E+02
     -5.595  0.1343E+02  0.9746E+02
     -5.490  0.4326E+02  0.1020E+03
     -5.386  0.1342E+03  0.1160E+03
     -5.281  0.7846E+02  0.1242E+03
     -5.177  0.6153E+02  0.1306E+03
     -5.072  0.1122E+03  0.1424E+03
     -4.968  0.1060E+03  0.1535E+03
     -4.863  0.4234E+02  0.1579E+03
     -4.759  0.1042E+03  0.1688E+03
     -4.654  0.2718E+03  0.1972E+03
     -4.550  0.1453E+03  0.2124E+03
     -4.445  0.2439E+03  0.2379E+03
     -4.340  0.2758E+03  0.2667E+03
     -4.236  0.2658E+03  0.2945E+03
     -4.131  0.2706E+03  0.3228E+03
     -4.027  0.1914E+03  0.3428E+03
     -3.922  0.4287E+03  0.3876E+03
     -3.818  0.4645E+03  0.4361E+03
     -3.713  0.4924E+03  0.4876E+03
     -3.609  0.4100E+03  0.5305E+03
     -3.504  0.4761E+03  0.5802E+03
     -3.400  0.3749E+03  0.6194E+03
     -3.295  0.3338E+03  0.6543E+03
     -3.191  0.3931E+03  0.6954E+03
     -3.086  0.5147E+03  0.7492E+03
     -2.982  0.4247E+03  0.7936E+03
     -2.877  0.4181E+03  0.8373E+03
     -2.773  0.6079E+03  0.9009E+03
     -2.668  0.4913E+03  0.9522E+03
     -2.563  0.5583E+03  0.1011E+04
     -2.459  0.5847E+03  0.1072E+04
     -2.354  0.7055E+03  0.1145E+04
     -2.250  0.8014E+03  0.1229E+04
     -2.145  0.9040E+03  0.1324E+04
     -2.041  0.7905E+03  0.1406E+04
     -1.936  0.9315E+03  0.1504E+04
     -1.832  0.6595E+03  0.1573E+04
     -1.727  0.5913E+03  0.1634E+04
     -1.623  0.5637E+03  0.1693E+04
     -1.518  0.5176E+03  0.1747E+04
     -1.414  0.6649E+03  0.1817E+04
     -1.309  0.8193E+03  0.1903E+04
     -1.205  0.6217E+03  0.1968E+04
     -1.100  0.5691E+03  0.2027E+04
     -0.996  0.7664E+03  0.2107E+04
     -0.891  0.8641E+03  0.2198E+04
     -0.786  0.6661E+03  0.2267E+04
     -0.682  0.8104E+03  0.2352E+04
     -0.577  0.1189E+04  0.2476E+04
     -0.473  0.1134E+04  0.2595E+04
     -0.368  0.5292E+03  0.2650E+04
     -0.264  0.1702E+03  0.2668E+04
     -0.159  0.1215E+03  0.2681E+04
     -0.055  0.1721E+03  0.2699E+04
      0.050  0.1474E+03  0.2714E+04
      0.154  0.5690E+02  0.2720E+04
      0.259  0.6561E+02  0.2727E+04
      0.363  0.2398E+02  0.2729E+04
      0.468  0.1175E+03  0.2742E+04
      0.572  0.8490E+02  0.2750E+04
      0.677  0.9480E+02  0.2760E+04
      0.781  0.8500E+02  0.2769E+04
      0.886  0.1034E+03  0.2780E+04
      0.991  0.1485E+03  0.2796E+04
      1.095  0.5862E+02  0.2802E+04
      1.200  0.2047E+02  0.2804E+04
      1.304  0.1030E+03  0.2815E+04
      1.409  0.7780E+02  0.2823E+04
      1.513  0.3326E+02  0.2826E+04
      1.618  0.8728E+02  0.2835E+04
      1.722  0.9826E+02  0.2846E+04
      1.827  0.8213E+02  0.2854E+04
      1.931  0.9441E+02  0.2864E+04
      2.036  0.7145E+02  0.2871E+04
      2.140  0.5940E+02  0.2878E+04
      2.245  0.8126E+02  0.2886E+04
      2.349  0.1220E+03  0.2899E+04
      2.454  0.4833E+02  0.2904E+04
      2.558  0.5714E+02  0.2910E+04
      2.663  0.5397E+02  0.2916E+04
      2.768  0.2194E+02  0.2918E+04
      2.872  0.4366E+02  0.2922E+04
      2.977  0.6043E+02  0.2929E+04
      3.081  0.1912E+03  0.2949E+04
      3.186  0.1348E+03  0.2963E+04
      3.290  0.2339E+02  0.2965E+04
      3.395  0.3740E+02  0.2969E+04
      3.499  0.9065E+02  0.2979E+04
      3.604  0.4255E+02  0.2983E+04
      3.708  0.6489E+02  0.2990E+04
      3.813  0.4369E+02  0.2994E+04
      3.917  0.1117E+02  0.2996E+04
      4.022  0.3073E+02  0.2999E+04
      4.126  0.3313E+02  0.3002E+04
      4.231  0.5534E+02  0.3008E+04
      4.335  0.3578E+02  0.3012E+04
      4.440  0.8554E+02  0.3021E+04
      4.545  0.6751E+02  0.3028E+04
      4.649  0.5293E+02  0.3033E+04
      4.754  0.4368E+02  0.3038E+04
      4.858  0.6862E+00  0.3038E+04
      4.963  0.1000E-04  0.3038E+04
      5.067  0.3824E-13  0.3038E+04
      5.172  0.0000E+00  0.3038E+04
      5.276  0.0000E+00  0.3038E+04
      5.381  0.0000E+00  0.3038E+04
      5.485  0.0000E+00  0.3038E+04
      5.590  0.0000E+00  0.3038E+04
      5.694  0.0000E+00  0.3038E+04
      5.799  0.0000E+00  0.3038E+04
      5.903  0.0000E+00  0.3038E+04
      6.008  0.0000E+00  0.3038E+04
      6.112  0.0000E+00  0.3038E+04
