  254  254    1    1
  0.2268316E+02  0.1514622E-08  0.1514622E-08  0.2900000E-08  0.5000000E-15
   1.0000000000000000E-004
  CAR 
 NiAl                                    
   2532      4   1519
 
  0.1262379E-14  0.1262379E-14  0.1262379E-14  0.2500000E+00
    1      -23.820994   1.000000
    2      -17.070639   1.000000
    3       -9.099993   1.000000
    4       -8.683092   1.000000
    5       -8.482553   1.000000
    6       -8.188384   1.000000
    7       -8.186288   1.000000
    8       -8.186125   1.000000
    9       -8.186061   1.000000
   10       -8.185837   1.000000
   11       -8.166068   1.000000
   12       -7.726493   1.000000
   13       -7.696304   1.000000
   14       -7.695653   1.000000
   15       -7.680607   1.000000
   16       -7.680047   1.000000
   17       -7.679929   1.000000
   18       -7.674096   1.000000
   19       -7.373648   1.000000
   20       -7.167745   1.000000
   21       -6.893448   1.000000
   22       -6.891878   1.000000
   23       -6.891737   1.000000
   24       -6.890856   1.000000
   25       -6.837867   1.000000
   26       -6.806270   1.000000
   27       -6.656015   1.000000
   28       -6.546334   1.000000
   29       -6.545706   1.000000
   30       -6.545591   1.000000
   31       -6.544923   1.000000
   32       -6.538885   1.000000
   33       -6.537786   1.000000
   34       -6.125994   1.000000
   35       -6.123466   1.000000
   36       -6.122867   1.000000
   37       -6.121542   1.000000
   38       -6.113106   1.000000
   39       -6.110740   1.000000
   40       -5.923128   1.000000
   41       -5.920263   1.000000
   42       -5.920100   1.000000
   43       -5.919506   1.000000
   44       -5.915871   1.000000
   45       -5.915491   1.000000
   46       -5.915193   1.000000
   47       -5.915083   1.000000
   48       -5.914983   1.000000
   49       -5.914129   1.000000
   50       -5.899025   1.000000
   51       -5.836476   1.000000
   52       -5.654947   1.000000
   53       -5.584164   1.000000
   54       -5.580883   1.000000
   55       -5.580685   1.000000
   56       -5.578633   1.000000
   57       -5.574849   1.000000
   58       -5.572786   1.000000
   59       -5.496332   1.000000
   60       -5.491089   1.000000
   61       -5.489902   1.000000
   62       -5.488354   1.000000
   63       -5.474195   1.000000
   64       -5.466692   1.000000
   65       -5.132475   1.000000
   66       -5.124563   1.000000
   67       -5.123939   1.000000
   68       -5.122146   1.000000
   69       -5.118391   1.000000
   70       -5.112742   1.000000
   71       -5.020108   1.000000
   72       -4.977339   1.000000
   73       -4.969824   1.000000
   74       -4.969233   1.000000
   75       -4.969012   1.000000
   76       -4.962398   1.000000
   77       -4.901556   1.000000
   78       -4.829843   1.000000
   79       -4.784358   1.000000
   80       -4.777165   1.000000
   81       -4.777016   1.000000
   82       -4.773107   1.000000
   83       -4.760801   1.000000
   84       -4.758916   1.000000
   85       -4.757704   1.000000
   86       -4.747846   1.000000
   87       -4.732488   1.000000
   88       -4.682423   1.000000
   89       -4.657056   1.000000
   90       -4.656235   1.000000
   91       -4.653628   1.000000
   92       -4.645584   1.000000
   93       -4.645108   1.000000
   94       -4.621849   1.000000
   95       -4.621410   1.000000
   96       -4.621360   1.000000
   97       -4.554118   1.000000
   98       -4.546492   1.000000
   99       -4.545878   1.000000
  100       -4.545236   1.000000
  101       -4.545175   1.000000
  102       -4.544969   1.000000
  103       -4.544921   1.000000
  104       -4.544877   1.000000
  105       -4.544808   1.000000
  106       -4.544612   1.000000
  107       -4.544111   1.000000
  108       -4.543390   1.000000
  109       -4.513924   1.000000
  110       -4.499958   1.000000
  111       -4.499827   1.000000
  112       -4.465600   1.000000
  113       -4.414021   1.000000
  114       -4.413224   1.000000
  115       -4.406789   1.000000
  116       -4.392030   1.000000
  117       -4.391233   1.000000
  118       -4.391066   1.000000
  119       -4.391000   1.000000
  120       -4.372588   1.000000
  121       -4.356078   1.000000
  122       -4.352362   1.000000
  123       -4.348026   1.000000
  124       -4.347242   1.000000
  125       -4.347226   1.000000
  126       -4.346612   1.000000
  127       -4.346384   1.000000
  128       -4.346324   1.000000
  129       -4.346284   1.000000
  130       -4.346067   1.000000
  131       -4.345044   1.000000
  132       -4.344160   1.000000
  133       -4.332555   1.000000
  134       -4.317215   1.000000
  135       -4.315251   1.000000
  136       -4.315026   1.000000
  137       -4.312607   1.000000
  138       -4.312251   1.000000
  139       -4.312089   1.000000
  140       -4.311988   1.000000
  141       -4.311591   1.000000
  142       -4.311426   1.000000
  143       -4.311007   1.000000
  144       -4.310510   1.000000
  145       -4.309992   1.000000
  146       -4.268111   1.000000
  147       -4.267425   1.000000
  148       -4.267184   1.000000
  149       -4.267064   1.000000
  150       -4.265058   1.000000
  151       -4.255058   1.000000
  152       -4.232784   1.000000
  153       -4.232360   1.000000
  154       -4.230491   1.000000
  155       -4.226536   1.000000
  156       -4.219224   1.000000
  157       -4.216184   1.000000
  158       -4.213642   1.000000
  159       -4.205191   1.000000
  160       -4.201072   1.000000
  161       -4.186394   1.000000
  162       -4.181452   1.000000
  163       -4.180375   1.000000
  164       -4.176554   1.000000
  165       -4.174852   1.000000
  166       -4.174176   1.000000
  167       -4.173880   1.000000
  168       -4.173771   1.000000
  169       -4.172696   1.000000
  170       -4.171720   1.000000
  171       -4.168727   1.000000
  172       -4.157242   1.000000
  173       -4.108410   1.000000
  174       -4.104063   1.000000
  175       -4.103725   1.000000
  176       -4.098502   1.000000
  177       -4.096684   1.000000
  178       -4.082167   1.000000
  179       -4.065254   1.000000
  180       -4.064852   1.000000
  181       -4.063943   1.000000
  182       -3.999867   1.000000
  183       -3.992937   1.000000
  184       -3.991030   1.000000
  185       -3.985096   1.000000
  186       -3.979342   1.000000
  187       -3.978938   1.000000
  188       -3.978549   1.000000
  189       -3.976316   1.000000
  190       -3.974084   1.000000
  191       -3.974016   1.000000
  192       -3.973821   1.000000
  193       -3.973093   1.000000
  194       -3.970233   1.000000
  195       -3.964845   1.000000
  196       -3.941259   1.000000
  197       -3.912196   1.000000
  198       -3.910252   1.000000
  199       -3.900325   1.000000
  200       -3.871328   1.000000
  201       -3.860352   1.000000
  202       -3.859345   1.000000
  203       -3.855547   1.000000
  204       -3.855368   1.000000
  205       -3.854442   1.000000
  206       -3.852952   1.000000
  207       -3.841820   1.000000
  208       -3.839699   1.000000
  209       -3.811693   1.000000
  210       -3.787354   1.000000
  211       -3.785757   1.000000
  212       -3.785089   1.000000
  213       -3.784901   1.000000
  214       -3.784778   1.000000
  215       -3.784706   1.000000
  216       -3.784660   1.000000
  217       -3.784519   1.000000
  218       -3.784363   1.000000
  219       -3.784295   1.000000
  220       -3.783051   1.000000
  221       -3.782399   1.000000
  222       -3.780014   1.000000
  223       -3.779604   1.000000
  224       -3.778748   1.000000
  225       -3.777403   1.000000
  226       -3.776295   1.000000
  227       -3.764177   1.000000
  228       -3.731934   1.000000
  229       -3.728781   1.000000
  230       -3.727058   1.000000
  231       -3.726525   1.000000
  232       -3.725758   1.000000
  233       -3.725712   1.000000
  234       -3.725597   1.000000
  235       -3.725157   1.000000
  236       -3.723136   1.000000
  237       -3.721696   1.000000
  238       -3.714421   1.000000
  239       -3.709045   1.000000
  240       -3.702853   1.000000
  241       -3.702513   1.000000
  242       -3.702197   1.000000
  243       -3.698715   1.000000
  244       -3.696604   1.000000
  245       -3.670728   1.000000
  246       -3.663539   1.000000
  247       -3.663234   1.000000
  248       -3.662676   1.000000
  249       -3.662603   1.000000
  250       -3.661747   1.000000
  251       -3.660927   1.000000
  252       -3.659392   1.000000
  253       -3.658884   1.000000
  254       -3.658389   1.000000
  255       -3.655980   1.000000
  256       -3.650835   1.000000
  257       -3.650623   1.000000
  258       -3.606025   1.000000
  259       -3.602748   1.000000
  260       -3.598170   1.000000
  261       -3.597533   1.000000
  262       -3.597045   1.000000
  263       -3.596779   1.000000
  264       -3.596636   1.000000
  265       -3.596569   1.000000
  266       -3.596323   1.000000
  267       -3.596294   1.000000
  268       -3.595445   1.000000
  269       -3.592142   1.000000
  270       -3.590628   1.000000
  271       -3.582207   1.000000
  272       -3.571031   1.000000
  273       -3.567209   1.000000
  274       -3.563932   1.000000
  275       -3.563100   1.000000
  276       -3.562891   1.000000
  277       -3.547438   1.000000
  278       -3.544629   1.000000
  279       -3.542791   1.000000
  280       -3.541163   1.000000
  281       -3.538139   1.000000
  282       -3.529555   1.000000
  283       -3.529263   1.000000
  284       -3.521984   1.000000
  285       -3.520130   1.000000
  286       -3.519646   1.000000
  287       -3.519592   1.000000
  288       -3.519150   1.000000
  289       -3.517403   1.000000
  290       -3.517110   1.000000
  291       -3.515025   1.000000
  292       -3.514507   1.000000
  293       -3.514301   1.000000
  294       -3.512026   1.000000
  295       -3.511969   1.000000
  296       -3.498797   1.000000
  297       -3.460528   1.000000
  298       -3.457159   1.000000
  299       -3.445988   1.000000
  300       -3.445803   1.000000
  301       -3.440683   1.000000
  302       -3.440030   1.000000
  303       -3.439029   1.000000
  304       -3.438799   1.000000
  305       -3.438645   1.000000
  306       -3.438492   1.000000
  307       -3.438298   1.000000
  308       -3.436557   1.000000
  309       -3.434057   1.000000
  310       -3.433776   1.000000
  311       -3.427967   1.000000
  312       -3.409772   1.000000
  313       -3.367627   1.000000
  314       -3.367233   1.000000
  315       -3.366776   1.000000
  316       -3.366494   1.000000
  317       -3.366003   1.000000
  318       -3.363902   1.000000
  319       -3.349449   1.000000
  320       -3.343129   1.000000
  321       -3.334503   1.000000
  322       -3.332663   1.000000
  323       -3.331043   1.000000
  324       -3.331019   1.000000
  325       -3.330726   1.000000
  326       -3.330491   1.000000
  327       -3.330164   1.000000
  328       -3.329953   1.000000
  329       -3.326608   1.000000
  330       -3.323043   1.000000
  331       -3.321386   1.000000
  332       -3.320730   1.000000
  333       -3.320414   1.000000
  334       -3.320097   1.000000
  335       -3.319593   1.000000
  336       -3.318171   1.000000
  337       -3.315522   1.000000
  338       -3.314825   1.000000
  339       -3.314742   1.000000
  340       -3.312804   1.000000
  341       -3.304097   1.000000
  342       -3.263510   1.000000
  343       -3.228508   1.000000
  344       -3.217577   1.000000
  345       -3.216170   1.000000
  346       -3.191498   1.000000
  347       -3.189543   1.000000
  348       -3.187863   1.000000
  349       -3.186099   1.000000
  350       -3.184870   1.000000
  351       -3.184692   1.000000
  352       -3.174275   1.000000
  353       -3.174266   1.000000
  354       -3.163001   1.000000
  355       -3.161133   1.000000
  356       -3.154726   1.000000
  357       -3.154175   1.000000
  358       -3.152305   1.000000
  359       -3.151879   1.000000
  360       -3.150485   1.000000
  361       -3.150010   1.000000
  362       -3.149622   1.000000
  363       -3.143587   1.000000
  364       -3.140914   1.000000
  365       -3.140459   1.000000
  366       -3.134185   1.000000
  367       -3.101454   1.000000
  368       -3.087016   1.000000
  369       -3.082445   1.000000
  370       -3.082184   1.000000
  371       -3.080425   1.000000
  372       -3.073890   1.000000
  373       -3.065624   1.000000
  374       -3.059224   1.000000
  375       -3.056504   1.000000
  376       -3.055727   1.000000
  377       -3.055013   1.000000
  378       -3.054341   1.000000
  379       -3.053893   1.000000
  380       -3.053553   1.000000
  381       -3.053475   1.000000
  382       -3.053080   1.000000
  383       -3.053026   1.000000
  384       -3.052634   1.000000
  385       -3.047057   1.000000
  386       -3.009274   1.000000
  387       -3.004824   1.000000
  388       -3.003670   1.000000
  389       -3.003537   1.000000
  390       -3.002896   1.000000
  391       -3.002615   1.000000
  392       -3.001887   1.000000
  393       -3.001637   1.000000
  394       -3.000889   1.000000
  395       -3.000360   1.000000
  396       -2.988234   1.000000
  397       -2.975501   1.000000
  398       -2.951472   1.000000
  399       -2.947989   1.000000
  400       -2.947309   1.000000
  401       -2.946982   1.000000
  402       -2.946538   1.000000
  403       -2.946308   1.000000
  404       -2.889272   1.000000
  405       -2.889226   1.000000
  406       -2.887748   1.000000
  407       -2.886891   1.000000
  408       -2.886229   1.000000
  409       -2.880056   1.000000
  410       -2.879208   1.000000
  411       -2.878321   1.000000
  412       -2.877876   1.000000
  413       -2.877750   1.000000
  414       -2.876653   1.000000
  415       -2.875105   1.000000
  416       -2.852406   1.000000
  417       -2.852259   1.000000
  418       -2.851949   1.000000
  419       -2.851532   1.000000
  420       -2.851354   1.000000
  421       -2.850191   1.000000
  422       -2.848071   1.000000
  423       -2.847294   1.000000
  424       -2.846422   1.000000
  425       -2.845665   1.000000
  426       -2.844767   1.000000
  427       -2.838083   1.000000
  428       -2.823579   1.000000
  429       -2.823507   1.000000
  430       -2.823015   1.000000
  431       -2.821518   1.000000
  432       -2.820995   1.000000
  433       -2.820979   1.000000
  434       -2.818894   1.000000
  435       -2.818502   1.000000
  436       -2.818058   1.000000
  437       -2.817292   1.000000
  438       -2.817222   1.000000
  439       -2.817153   1.000000
  440       -2.816797   1.000000
  441       -2.816725   1.000000
  442       -2.815834   1.000000
  443       -2.813188   1.000000
  444       -2.806332   1.000000
  445       -2.793047   1.000000
  446       -2.757103   1.000000
  447       -2.752825   1.000000
  448       -2.749135   1.000000
  449       -2.747876   1.000000
  450       -2.746482   1.000000
  451       -2.745760   1.000000
  452       -2.745576   1.000000
  453       -2.744517   1.000000
  454       -2.744412   1.000000
  455       -2.744356   1.000000
  456       -2.743780   1.000000
  457       -2.743614   1.000000
  458       -2.743267   1.000000
  459       -2.743186   1.000000
  460       -2.742803   1.000000
  461       -2.742160   1.000000
  462       -2.741464   1.000000
  463       -2.741262   1.000000
  464       -2.739738   1.000000
  465       -2.738072   1.000000
  466       -2.733539   1.000000
  467       -2.706410   1.000000
  468       -2.704403   1.000000
  469       -2.702150   1.000000
  470       -2.701673   1.000000
  471       -2.664772   1.000000
  472       -2.660642   1.000000
  473       -2.659587   1.000000
  474       -2.655087   1.000000
  475       -2.654226   1.000000
  476       -2.652417   1.000000
  477       -2.651874   1.000000
  478       -2.650954   1.000000
  479       -2.650924   1.000000
  480       -2.649821   1.000000
  481       -2.649207   1.000000
  482       -2.649069   1.000000
  483       -2.648273   1.000000
  484       -2.648240   1.000000
  485       -2.647728   1.000000
  486       -2.647645   1.000000
  487       -2.647387   1.000000
  488       -2.646873   1.000000
  489       -2.646550   1.000000
  490       -2.645397   1.000000
  491       -2.643021   1.000000
  492       -2.642832   1.000000
  493       -2.642610   1.000000
  494       -2.641908   1.000000
  495       -2.641758   1.000000
  496       -2.641619   1.000000
  497       -2.641289   1.000000
  498       -2.641270   1.000000
  499       -2.640612   1.000000
  500       -2.640288   1.000000
  501       -2.633925   1.000000
  502       -2.621418   1.000000
  503       -2.593452   1.000000
  504       -2.592366   1.000000
  505       -2.591123   1.000000
  506       -2.591063   1.000000
  507       -2.589840   1.000000
  508       -2.584941   1.000000
  509       -2.582059   1.000000
  510       -2.581907   1.000000
  511       -2.581573   1.000000
  512       -2.580945   1.000000
  513       -2.580239   1.000000
  514       -2.579455   1.000000
  515       -2.565573   1.000000
  516       -2.560268   1.000000
  517       -2.555199   1.000000
  518       -2.555156   1.000000
  519       -2.546243   1.000000
  520       -2.542044   1.000000
  521       -2.535222   1.000000
  522       -2.530909   1.000000
  523       -2.527101   1.000000
  524       -2.525912   1.000000
  525       -2.513921   1.000000
  526       -2.506317   1.000000
  527       -2.485432   1.000000
  528       -2.485160   1.000000
  529       -2.484336   1.000000
  530       -2.484073   1.000000
  531       -2.483243   1.000000
  532       -2.482754   1.000000
  533       -2.482527   1.000000
  534       -2.482138   1.000000
  535       -2.481586   1.000000
  536       -2.481249   1.000000
  537       -2.480246   1.000000
  538       -2.479715   1.000000
  539       -2.475043   1.000000
  540       -2.470248   1.000000
  541       -2.465725   1.000000
  542       -2.465005   1.000000
  543       -2.460059   1.000000
  544       -2.442396   1.000000
  545       -2.437650   1.000000
  546       -2.435970   1.000000
  547       -2.430827   1.000000
  548       -2.426954   1.000000
  549       -2.425848   1.000000
  550       -2.425527   1.000000
  551       -2.423020   1.000000
  552       -2.421819   1.000000
  553       -2.417757   1.000000
  554       -2.414323   1.000000
  555       -2.414213   1.000000
  556       -2.412798   1.000000
  557       -2.412113   1.000000
  558       -2.410965   1.000000
  559       -2.410641   1.000000
  560       -2.410506   1.000000
  561       -2.410170   1.000000
  562       -2.409510   1.000000
  563       -2.409202   1.000000
  564       -2.407773   1.000000
  565       -2.407332   1.000000
  566       -2.405611   1.000000
  567       -2.404356   1.000000
  568       -2.402130   1.000000
  569       -2.400490   1.000000
  570       -2.400342   1.000000
  571       -2.399735   1.000000
  572       -2.394407   1.000000
  573       -2.389213   1.000000
  574       -2.364096   1.000000
  575       -2.357612   1.000000
  576       -2.354836   1.000000
  577       -2.354029   1.000000
  578       -2.352222   1.000000
  579       -2.350094   1.000000
  580       -2.348619   1.000000
  581       -2.347760   1.000000
  582       -2.346393   1.000000
  583       -2.346247   1.000000
  584       -2.344105   1.000000
  585       -2.337472   1.000000
  586       -2.336395   1.000000
  587       -2.335604   1.000000
  588       -2.333608   1.000000
  589       -2.331727   1.000000
  590       -2.327309   1.000000
  591       -2.315044   1.000000
  592       -2.309592   1.000000
  593       -2.309551   1.000000
  594       -2.307421   1.000000
  595       -2.306836   1.000000
  596       -2.305425   1.000000
  597       -2.302400   1.000000
  598       -2.294560   1.000000
  599       -2.294167   1.000000
  600       -2.294103   1.000000
  601       -2.293354   1.000000
  602       -2.293291   1.000000
  603       -2.292797   1.000000
  604       -2.288929   1.000000
  605       -2.288206   1.000000
  606       -2.284722   1.000000
  607       -2.274907   1.000000
  608       -2.274816   1.000000
  609       -2.274449   1.000000
  610       -2.274248   1.000000
  611       -2.274153   1.000000
  612       -2.273939   1.000000
  613       -2.260077   1.000000
  614       -2.258897   1.000000
  615       -2.253251   1.000000
  616       -2.247592   1.000000
  617       -2.241807   1.000000
  618       -2.236558   1.000000
  619       -2.236363   1.000000
  620       -2.234168   1.000000
  621       -2.231546   1.000000
  622       -2.230486   1.000000
  623       -2.229696   1.000000
  624       -2.226798   1.000000
  625       -2.214604   1.000000
  626       -2.213862   1.000000
  627       -2.200479   1.000000
  628       -2.199865   1.000000
  629       -2.199496   1.000000
  630       -2.199330   1.000000
  631       -2.199270   1.000000
  632       -2.199175   1.000000
  633       -2.195919   1.000000
  634       -2.195489   1.000000
  635       -2.193292   1.000000
  636       -2.177844   1.000000
  637       -2.177741   1.000000
  638       -2.176726   1.000000
  639       -2.176300   1.000000
  640       -2.175516   1.000000
  641       -2.174846   1.000000
  642       -2.167744   1.000000
  643       -2.166534   1.000000
  644       -2.165972   1.000000
  645       -2.162332   1.000000
  646       -2.159078   1.000000
  647       -2.157459   1.000000
  648       -2.154759   1.000000
  649       -2.153370   1.000000
  650       -2.153245   1.000000
  651       -2.151971   1.000000
  652       -2.151737   1.000000
  653       -2.151641   1.000000
  654       -2.149933   1.000000
  655       -2.149398   1.000000
  656       -2.148778   1.000000
  657       -2.148289   1.000000
  658       -2.148073   1.000000
  659       -2.147919   1.000000
  660       -2.147712   1.000000
  661       -2.145767   1.000000
  662       -2.144472   1.000000
  663       -2.141854   1.000000
  664       -2.139977   1.000000
  665       -2.139719   1.000000
  666       -2.138563   1.000000
  667       -2.138144   1.000000
  668       -2.136907   1.000000
  669       -2.135282   1.000000
  670       -2.133737   1.000000
  671       -2.133344   1.000000
  672       -2.128963   1.000000
  673       -2.126319   1.000000
  674       -2.100621   1.000000
  675       -2.095565   1.000000
  676       -2.092669   1.000000
  677       -2.090960   1.000000
  678       -2.086638   1.000000
  679       -2.085711   1.000000
  680       -2.085647   1.000000
  681       -2.075315   1.000000
  682       -2.068189   1.000000
  683       -2.067052   1.000000
  684       -2.065754   1.000000
  685       -2.064792   1.000000
  686       -2.064586   1.000000
  687       -2.064304   1.000000
  688       -2.046155   1.000000
  689       -2.045727   1.000000
  690       -2.041283   1.000000
  691       -2.041047   1.000000
  692       -2.039989   1.000000
  693       -2.039936   1.000000
  694       -2.039478   1.000000
  695       -2.038116   1.000000
  696       -2.037352   1.000000
  697       -2.037089   1.000000
  698       -2.036180   1.000000
  699       -2.035176   1.000000
  700       -2.034961   1.000000
  701       -2.034889   1.000000
  702       -2.033451   1.000000
  703       -2.032180   1.000000
  704       -2.024745   1.000000
  705       -2.024225   1.000000
  706       -2.024022   1.000000
  707       -2.022697   1.000000
  708       -2.021773   1.000000
  709       -2.020772   1.000000
  710       -2.020702   1.000000
  711       -2.020404   1.000000
  712       -2.020186   1.000000
  713       -2.020142   1.000000
  714       -2.020008   1.000000
  715       -2.019673   1.000000
  716       -2.018429   1.000000
  717       -2.018287   1.000000
  718       -2.004427   1.000000
  719       -1.995122   1.000000
  720       -1.994911   1.000000
  721       -1.994366   1.000000
  722       -1.994280   1.000000
  723       -1.994184   1.000000
  724       -1.993892   1.000000
  725       -1.992200   1.000000
  726       -1.976548   1.000000
  727       -1.972823   1.000000
  728       -1.972021   1.000000
  729       -1.967757   1.000000
  730       -1.966524   1.000000
  731       -1.965106   1.000000
  732       -1.951451   1.000000
  733       -1.950529   1.000000
  734       -1.950270   1.000000
  735       -1.949883   1.000000
  736       -1.949525   1.000000
  737       -1.948865   1.000000
  738       -1.948591   1.000000
  739       -1.948544   1.000000
  740       -1.946883   1.000000
  741       -1.928993   1.000000
  742       -1.922843   1.000000
  743       -1.912516   1.000000
  744       -1.910160   1.000000
  745       -1.906058   1.000000
  746       -1.905587   1.000000
  747       -1.905326   1.000000
  748       -1.904540   1.000000
  749       -1.904419   1.000000
  750       -1.901146   1.000000
  751       -1.901036   1.000000
  752       -1.899742   1.000000
  753       -1.895742   1.000000
  754       -1.894367   1.000000
  755       -1.893418   1.000000
  756       -1.863210   1.000000
  757       -1.857565   1.000000
  758       -1.856361   1.000000
  759       -1.853617   1.000000
  760       -1.852972   1.000000
  761       -1.851349   1.000000
  762       -1.850883   1.000000
  763       -1.850516   1.000000
  764       -1.849638   1.000000
  765       -1.849100   1.000000
  766       -1.849017   1.000000
  767       -1.848105   1.000000
  768       -1.847019   1.000000
  769       -1.846563   1.000000
  770       -1.846243   1.000000
  771       -1.841863   1.000000
  772       -1.841273   1.000000
  773       -1.841238   1.000000
  774       -1.840736   1.000000
  775       -1.840653   1.000000
  776       -1.840040   1.000000
  777       -1.838528   1.000000
  778       -1.828114   1.000000
  779       -1.818068   1.000000
  780       -1.815271   1.000000
  781       -1.811764   1.000000
  782       -1.810586   1.000000
  783       -1.809104   1.000000
  784       -1.805152   1.000000
  785       -1.803690   1.000000
  786       -1.803153   1.000000
  787       -1.803064   1.000000
  788       -1.802965   1.000000
  789       -1.793158   1.000000
  790       -1.790270   1.000000
  791       -1.788110   1.000000
  792       -1.787647   1.000000
  793       -1.786891   1.000000
  794       -1.784238   1.000000
  795       -1.783609   1.000000
  796       -1.780343   1.000000
  797       -1.778915   1.000000
  798       -1.772917   1.000000
  799       -1.772741   1.000000
  800       -1.770002   1.000000
  801       -1.769979   1.000000
  802       -1.762726   1.000000
  803       -1.762225   1.000000
  804       -1.760188   1.000000
  805       -1.757872   1.000000
  806       -1.757684   1.000000
  807       -1.756759   1.000000
  808       -1.754516   1.000000
  809       -1.754151   1.000000
  810       -1.752036   1.000000
  811       -1.751296   1.000000
  812       -1.750891   1.000000
  813       -1.749708   1.000000
  814       -1.749383   1.000000
  815       -1.746136   1.000000
  816       -1.734589   1.000000
  817       -1.727271   1.000000
  818       -1.726614   1.000000
  819       -1.721301   1.000000
  820       -1.718669   1.000000
  821       -1.717182   1.000000
  822       -1.713944   1.000000
  823       -1.713735   1.000000
  824       -1.711900   1.000000
  825       -1.710981   1.000000
  826       -1.710610   1.000000
  827       -1.710274   1.000000
  828       -1.695097   1.000000
  829       -1.693812   1.000000
  830       -1.688980   1.000000
  831       -1.683105   1.000000
  832       -1.681269   1.000000
  833       -1.680175   1.000000
  834       -1.678685   1.000000
  835       -1.677802   1.000000
  836       -1.676392   1.000000
  837       -1.676370   1.000000
  838       -1.675768   1.000000
  839       -1.675509   1.000000
  840       -1.674708   1.000000
  841       -1.673344   1.000000
  842       -1.672885   1.000000
  843       -1.672569   1.000000
  844       -1.667510   1.000000
  845       -1.666104   1.000000
  846       -1.665428   1.000000
  847       -1.662821   1.000000
  848       -1.662487   1.000000
  849       -1.661858   1.000000
  850       -1.660003   1.000000
  851       -1.659531   1.000000
  852       -1.658638   1.000000
  853       -1.657093   1.000000
  854       -1.654864   1.000000
  855       -1.652951   1.000000
  856       -1.652815   1.000000
  857       -1.652514   1.000000
  858       -1.650690   1.000000
  859       -1.648909   1.000000
  860       -1.648473   1.000000
  861       -1.633806   1.000000
  862       -1.630421   1.000000
  863       -1.625213   1.000000
  864       -1.609552   1.000000
  865       -1.599239   1.000000
  866       -1.596591   1.000000
  867       -1.595804   1.000000
  868       -1.594839   1.000000
  869       -1.591837   1.000000
  870       -1.583633   1.000000
  871       -1.578858   1.000000
  872       -1.572831   1.000000
  873       -1.570794   1.000000
  874       -1.567645   1.000000
  875       -1.565222   1.000000
  876       -1.564629   1.000000
  877       -1.563032   1.000000
  878       -1.562510   1.000000
  879       -1.562353   1.000000
  880       -1.560924   1.000000
  881       -1.560418   1.000000
  882       -1.553966   1.000000
  883       -1.552541   1.000000
  884       -1.550720   1.000000
  885       -1.550450   1.000000
  886       -1.542871   1.000000
  887       -1.541756   1.000000
  888       -1.541207   1.000000
  889       -1.502218   1.000000
  890       -1.496142   1.000000
  891       -1.490923   1.000000
  892       -1.490397   1.000000
  893       -1.489289   1.000000
  894       -1.489007   1.000000
  895       -1.461344   1.000000
  896       -1.459315   1.000000
  897       -1.451219   1.000000
  898       -1.446211   1.000000
  899       -1.443602   1.000000
  900       -1.441488   1.000000
  901       -1.439315   1.000000