       N       E                     dE             d eps       ncg     rms          rms(c)
DAV:   1     0.223616061712E+05    0.22362E+05   -0.98574E+05 12200   0.134E+03
DAV:   2     0.100636178309E+03   -0.22261E+05   -0.21268E+05 12152   0.469E+02
DAV:   3    -0.133466229256E+04   -0.14353E+04   -0.12066E+04 13616   0.131E+02
DAV:   4    -0.155951300661E+04   -0.22485E+03   -0.19158E+03 22336   0.492E+01
DAV:   5    -0.157076105605E+04   -0.11248E+02   -0.10520E+02 19792   0.117E+01    0.142E+02
DAV:   6    -0.196969604768E+04   -0.39893E+03   -0.27300E+03 16304   0.174E+02    0.294E+02
DAV:   7    -0.171967969550E+04    0.25002E+03   -0.10213E+03 13208   0.139E+02    0.230E+02
DAV:   8    -0.160491578604E+04    0.11476E+03   -0.70249E+02 15928   0.114E+02    0.208E+02
DAV:   9    -0.216098213655E+04   -0.55607E+03   -0.30396E+02 13608   0.156E+02    0.284E+02
DAV:  10    -0.154854106238E+04    0.61244E+03   -0.32615E+02 16040   0.851E+01    0.158E+02
DAV:  11    -0.162100157187E+04   -0.72461E+02   -0.33624E+02 14560   0.104E+02    0.202E+02
DAV:  12    -0.158211639210E+04    0.38885E+02   -0.24224E+02 13440   0.963E+01    0.174E+02
DAV:  13    -0.145200356758E+04    0.13011E+03   -0.15089E+02 12896   0.655E+01    0.149E+02
DAV:  14    -0.153516350593E+04   -0.83160E+02   -0.10635E+02 13072   0.661E+01    0.184E+02
DAV:  15    -0.154806256428E+04   -0.12899E+02   -0.86850E+01 13264   0.570E+01    0.192E+02
DAV:  16    -0.149401531860E+04    0.54047E+02   -0.78524E+01 12720   0.565E+01    0.166E+02
DAV:  17    -0.143683608908E+04    0.57179E+02   -0.48949E+01 12656   0.429E+01    0.146E+02
DAV:  18    -0.138673496840E+04    0.50101E+02   -0.32174E+01 12752   0.355E+01    0.111E+02
DAV:  19    -0.138624794630E+04    0.48702E+00   -0.33901E+01 13248   0.369E+01    0.127E+02
DAV:  20    -0.136693053799E+04    0.19317E+02   -0.27536E+01 12864   0.313E+01    0.106E+02
DAV:  21    -0.134919668059E+04    0.17734E+02   -0.20318E+01 12800   0.225E+01    0.743E+01
DAV:  22    -0.134128273991E+04    0.79139E+01   -0.12059E+01 12976   0.188E+01    0.650E+01
DAV:  23    -0.133663659124E+04    0.46461E+01   -0.71773E+00 13040   0.139E+01    0.516E+01
DAV:  24    -0.133528607448E+04    0.13505E+01   -0.48402E+00 13072   0.120E+01    0.495E+01
DAV:  25    -0.133409098708E+04    0.11951E+01   -0.40115E+00 13136   0.109E+01    0.457E+01
DAV:  26    -0.133264690375E+04    0.14441E+01   -0.34264E+00 13120   0.107E+01    0.438E+01
DAV:  27    -0.133127408486E+04    0.13728E+01   -0.28691E+00 13120   0.944E+00    0.392E+01
DAV:  28    -0.132978706089E+04    0.14870E+01   -0.22341E+00 13168   0.853E+00    0.326E+01
DAV:  29    -0.132944567702E+04    0.34138E+00   -0.19192E+00 13208   0.797E+00    0.301E+01
DAV:  30    -0.133054467532E+04   -0.10990E+01   -0.18878E+00 13192   0.850E+00    0.379E+01
DAV:  31    -0.133201212138E+04   -0.14674E+01   -0.21840E+00 13200   0.938E+00    0.437E+01
DAV:  32    -0.133299815084E+04   -0.98603E+00   -0.24673E+00 13216   0.106E+01    0.474E+01
DAV:  33    -0.133077653622E+04    0.22216E+01   -0.22932E+00 13232   0.101E+01    0.357E+01
DAV:  34    -0.132968103629E+04    0.10955E+01   -0.17097E+00 13248   0.804E+00    0.305E+01
DAV:  35    -0.133032852385E+04   -0.64749E+00   -0.15980E+00 13272   0.775E+00    0.369E+01
DAV:  36    -0.132997445085E+04    0.35407E+00   -0.16137E+00 13280   0.783E+00    0.349E+01
DAV:  37    -0.132862922337E+04    0.13452E+01   -0.13749E+00 13280   0.737E+00    0.263E+01
DAV:  38    -0.132766140125E+04    0.96782E+00   -0.87320E-01 13280   0.552E+00    0.194E+01
DAV:  39    -0.132733081942E+04    0.33058E+00   -0.62375E-01 13296   0.413E+00    0.156E+01
DAV:  40    -0.132722926457E+04    0.10155E+00   -0.47267E-01 13312   0.368E+00    0.143E+01
DAV:  41    -0.132732310356E+04   -0.93839E-01   -0.48941E-01 13320   0.368E+00    0.155E+01
DAV:  42    -0.132717542192E+04    0.14768E+00   -0.40440E-01 13288   0.334E+00    0.125E+01
DAV:  43    -0.132701296045E+04    0.16246E+00   -0.29908E-01 13296   0.292E+00    0.947E+00
DAV:  44    -0.132693853805E+04    0.74422E-01   -0.15107E-01 13256   0.201E+00    0.816E+00
DAV:  45    -0.132703727397E+04   -0.98736E-01   -0.17414E-01 13280   0.226E+00    0.105E+01
DAV:  46    -0.132697611377E+04    0.61160E-01   -0.17735E-01 13312   0.225E+00    0.925E+00
DAV:  47    -0.132690803617E+04    0.68078E-01   -0.10617E-01 13248   0.183E+00    0.831E+00
DAV:  48    -0.132691079413E+04   -0.27580E-02   -0.72970E-02 13264   0.134E+00    0.861E+00
DAV:  49    -0.132695873107E+04   -0.47937E-01   -0.85752E-02 13272   0.149E+00    0.102E+01
DAV:  50    -0.132690442813E+04    0.54303E-01   -0.45475E-02 13320   0.104E+00    0.902E+00
DAV:  51    -0.132717387143E+04   -0.26944E+00   -0.21917E-01 19080   0.225E+00    0.144E+01
DAV:  52    -0.132686670574E+04    0.30717E+00   -0.17449E-01 13896   0.214E+00    0.727E+00
DAV:  53    -0.132682160365E+04    0.45102E-01   -0.90328E-02 14024   0.156E+00    0.598E+00
DAV:  54    -0.132685589943E+04   -0.34296E-01   -0.96345E-02 13840   0.164E+00    0.678E+00
DAV:  55    -0.132680950639E+04    0.46393E-01   -0.59447E-02 13968   0.137E+00    0.495E+00
DAV:  56    -0.132679889277E+04    0.10614E-01   -0.91987E-02 13936   0.177E+00    0.469E+00
DAV:  57    -0.132681663889E+04   -0.17746E-01   -0.63202E-02 13792   0.143E+00    0.539E+00
DAV:  58    -0.132678484234E+04    0.31797E-01   -0.53504E-02 13760   0.137E+00    0.401E+00
DAV:  59    -0.132676708808E+04    0.17754E-01   -0.37102E-02 13736   0.111E+00    0.306E+00
DAV:  60    -0.132676894066E+04   -0.18526E-02   -0.26743E-02 13696   0.925E-01    0.311E+00
DAV:  61    -0.132677530291E+04   -0.63623E-02   -0.35804E-02 13712   0.112E+00    0.359E+00
DAV:  62    -0.132678137587E+04   -0.60730E-02   -0.35287E-02 13712   0.109E+00    0.412E+00
DAV:  63    -0.132676608472E+04    0.15291E-01   -0.20144E-02 13800   0.797E-01    0.327E+00
DAV:  64    -0.132675588153E+04    0.10203E-01   -0.11280E-02 13712   0.634E-01    0.256E+00
DAV:  65    -0.132674974085E+04    0.61407E-02   -0.69165E-03 13776   0.491E-01    0.159E+00
DAV:  66    -0.132682706421E+04   -0.77323E-01   -0.40301E-02 16136   0.119E+00    0.549E+00
DAV:  67    -0.132674949128E+04    0.77573E-01   -0.33313E-02 14296   0.108E+00    0.123E+00
DAV:  68    -0.132674636381E+04    0.31275E-02   -0.50323E-03 14209   0.336E-01    0.784E-01
DAV:  69    -0.132674977469E+04   -0.34109E-02   -0.35410E-03 13760   0.304E-01    0.129E+00
DAV:  70    -0.132674870764E+04    0.10670E-02   -0.31742E-03 13393   0.308E-01    0.845E-01
DAV:  71    -0.132674823174E+04    0.47591E-03   -0.18742E-03 13440   0.246E-01    0.762E-01
DAV:  72    -0.132674867086E+04   -0.43912E-03   -0.15130E-03 13368   0.213E-01    0.779E-01
DAV:  73    -0.132674848235E+04    0.18851E-03   -0.10219E-03 13344   0.165E-01    0.516E-01
DAV:  74    -0.132674916878E+04   -0.68644E-03   -0.55585E-04 13368   0.135E-01    0.712E-01
DAV:  75    -0.132674919772E+04   -0.28934E-04   -0.43428E-04 13344   0.115E-01    0.560E-01
DAV:  76    -0.132675013719E+04   -0.93948E-03   -0.10462E-03 13552   0.185E-01    0.900E-01
DAV:  77    -0.132674947036E+04    0.66683E-03   -0.93780E-04 13656   0.168E-01    0.316E-01
DAV:  78    -0.132674974355E+04   -0.27318E-03   -0.23972E-04 13536   0.899E-02    0.289E-01
DAV:  79    -0.132675028831E+04   -0.54476E-03   -0.22718E-04 13890   0.788E-02    0.290E-01
DAV:  80    -0.132675053967E+04   -0.25136E-03   -0.18788E-04 13696   0.727E-02    0.229E-01
DAV:  81    -0.132675051757E+04    0.22097E-04   -0.15592E-04 13714   0.708E-02    0.246E-01
DAV:  82    -0.132675079593E+04   -0.27836E-03   -0.14534E-04 13576   0.645E-02    0.265E-01
DAV:  83    -0.132675116189E+04   -0.36596E-03   -0.13208E-04 13672   0.574E-02    0.210E-01
DAV:  84    -0.132675138948E+04   -0.22759E-03   -0.82737E-05 13392   0.454E-02    0.158E-01
DAV:  85    -0.132675149591E+04   -0.10643E-03   -0.47136E-05 12800   0.328E-02    0.156E-01
DAV:  86    -0.132675159295E+04   -0.97035E-04   -0.10742E-04 14032   0.591E-02    0.250E-01
DAV:  87    -0.132675167600E+04   -0.83059E-04   -0.11283E-04 13728   0.621E-02    0.179E-01
DAV:  88    -0.132675195320E+04   -0.27720E-03   -0.52980E-05 13144   0.355E-02    0.107E-01
DAV:  89    -0.132675214165E+04   -0.18845E-03   -0.26287E-05 10440   0.259E-02    0.865E-02
DAV:  90    -0.132675237342E+04   -0.23177E-03   -0.28592E-05 10816   0.241E-02    0.914E-02
DAV:  91    -0.132675256774E+04   -0.19433E-03   -0.47129E-05 12872   0.367E-02    0.164E-01
DAV:  92    -0.132675261282E+04   -0.45083E-04   -0.39607E-05 11112   0.347E-02    0.759E-02
DAV:  93    -0.132675274705E+04   -0.13422E-03   -0.21063E-05  9088   0.214E-02    0.105E-01
DAV:  94    -0.132675287235E+04   -0.12531E-03   -0.21186E-05  9896   0.199E-02    0.765E-02
DAV:  95    -0.132675295431E+04   -0.81959E-04   -0.11790E-05  8672   0.159E-02    0.803E-02
DAV:  96    -0.132675309686E+04   -0.14255E-03   -0.27473E-05 10328   0.263E-02    0.128E-01
DAV:  97    -0.132675311588E+04   -0.19021E-04   -0.24542E-05  9328   0.250E-02    0.599E-02
DAV:  98    -0.132675316260E+04   -0.46724E-04   -0.10626E-05  8536   0.137E-02    0.522E-02
DAV:  99    -0.132675323578E+04   -0.73173E-04   -0.15745E-05  9968   0.131E-02    0.433E-02
DAV: 100    -0.132675325976E+04   -0.23984E-04   -0.79089E-06  8336   0.121E-02    0.289E-02
DAV: 101    -0.132675321014E+04    0.49618E-04   -0.18981E-05  8408   0.238E-02    0.968E-02
DAV: 102    -0.132675325275E+04   -0.42608E-04   -0.16030E-05  8080   0.238E-02    0.427E-02
DAV: 103    -0.132675328813E+04   -0.35376E-04   -0.84409E-06  8328   0.109E-02    0.292E-02
DAV: 104    -0.132675330484E+04   -0.16714E-04   -0.44086E-06  7832   0.855E-03    0.270E-02
DAV: 105    -0.132675331549E+04   -0.10645E-04   -0.35523E-06  7160   0.771E-03    0.236E-02
DAV: 106    -0.132675333141E+04   -0.15920E-04   -0.66564E-06  7040   0.149E-02    0.720E-02
DAV: 107    -0.132675332301E+04    0.83926E-05   -0.70372E-06  6832   0.147E-02    0.265E-02
DAV: 108    -0.132675332744E+04   -0.44247E-05   -0.15897E-06  7304   0.575E-03
   1 F= -.14241331E+04 E0= -.14233928E+04  d E =-.148072E+01
