<?xml version="1.0" encoding="ISO-8859-1"?>
<modeling>
 <generator>
  <i name="program" type="string">vasp </i>
  <i name="version" type="string">6.2.1  </i>
  <i name="subversion" type="string">16May21 (build Jun 16 2021 03:23:30) complex                          parallel </i>
  <i name="platform" type="string">LinuxPGI </i>
  <i name="date" type="string">2022 04 26 </i>
  <i name="time" type="string">01:15:17 </i>
 </generator>
 <incar>
  <i type="string" name="SYSTEM">NiAl</i>
  <i type="int" name="ISTART">     0</i>
  <i type="int" name="NELM">   250</i>
  <i type="int" name="NELMIN">     6</i>
  <i name="EDIFF">      0.00000500</i>
  <i type="int" name="ISIF">     0</i>
  <i name="ENCUT">    360.00000000</i>
  <i type="string" name="LREAL">Auto</i>
  <i type="logical" name="LPLANE"> T  </i>
  <i type="int" name="ISMEAR">     0</i>
  <i name="SIGMA">      0.05000000</i>
  <i type="logical" name="LWAVE"> F  </i>
  <i type="logical" name="LCHARG"> F  </i>
  <i type="int" name="IVDW">    12</i>
 </incar>
 <primitive_cell>
  <structure name="primitive_cell" >
   <crystal>
    <varray name="basis" >
     <v>       0.00000000     -15.14622176       0.00000000 </v>
     <v>       0.00000000      -7.57311088     -13.11701281 </v>
     <v>      29.00000000       0.00000000       0.00000000 </v>
    </varray>
    <i name="volume">   5761.52236213 </i>
    <varray name="rec_basis" >
     <v>       0.00000000      -0.06602307       0.03811843 </v>
     <v>       0.00000000       0.00000000      -0.07623687 </v>
     <v>       0.03448276       0.00000000       0.00000000 </v>
    </varray>
   </crystal>
   <varray name="positions" >
    <v>       0.44444450       0.44444418       0.10434517 </v>
    <v>       0.44444439       0.77777770       0.10434517 </v>
    <v>       0.44444423       0.11111143       0.10434517 </v>
    <v>       0.77777779       0.44444418       0.10434517 </v>
    <v>       0.77777768       0.77777770       0.10434517 </v>
    <v>       0.77777752       0.11111143       0.10434517 </v>
    <v>       0.11111120       0.44444418       0.10434517 </v>
    <v>       0.11111109       0.77777770       0.10434517 </v>
    <v>       0.11111093       0.11111143       0.10434517 </v>
    <v>       0.55555543       0.55555561       0.17318552 </v>
    <v>       0.55555532       0.88888912       0.17318552 </v>
    <v>       0.55555554       0.22222209       0.17318552 </v>
    <v>       0.88888873       0.55555561       0.17318552 </v>
    <v>       0.88888862       0.88888912       0.17318552 </v>
    <v>       0.88888884       0.22222209       0.17318552 </v>
    <v>       0.22222214       0.55555561       0.17318552 </v>
    <v>       0.22222203       0.88888912       0.17318552 </v>
    <v>       0.22222225       0.22222209       0.17318552 </v>
    <v>       0.66666637       0.66666703       0.24249897 </v>
    <v>       0.66666659       0.00000000       0.24249897 </v>
    <v>       0.66666648       0.33333352       0.24249897 </v>
    <v>       0.99999978       0.66666703       0.24249897 </v>
    <v>       0.00000000       0.00000000       0.24249897 </v>
    <v>       0.99999989       0.33333352       0.24249897 </v>
    <v>       0.33333307       0.66666703       0.24249897 </v>
    <v>       0.33333329       0.00000000       0.24249897 </v>
    <v>       0.33333318       0.33333352       0.24249897 </v>
    <v>       0.77777768       0.77777770       0.31173069 </v>
    <v>       0.77777752       0.11111143       0.31173069 </v>
    <v>       0.77777779       0.44444418       0.31173069 </v>
    <v>       0.11111109       0.77777770       0.31173069 </v>
    <v>       0.11111093       0.11111143       0.31173069 </v>
    <v>       0.11111120       0.44444418       0.31173069 </v>
    <v>       0.44444439       0.77777770       0.31173069 </v>
    <v>       0.44444423       0.11111143       0.31173069 </v>
    <v>       0.44444450       0.44444418       0.31173069 </v>
    <v>       0.88888862       0.88888912       0.38096241 </v>
    <v>       0.88888884       0.22222209       0.38096241 </v>
    <v>       0.88888873       0.55555561       0.38096241 </v>
    <v>       0.22222203       0.88888912       0.38096241 </v>
    <v>       0.22222225       0.22222209       0.38096241 </v>
    <v>       0.22222214       0.55555561       0.38096241 </v>
    <v>       0.55555532       0.88888912       0.38096241 </v>
    <v>       0.55555554       0.22222209       0.38096241 </v>
    <v>       0.55555543       0.55555561       0.38096241 </v>
    <v>       0.00000000       0.00000000       0.45027586 </v>
    <v>       0.99999989       0.33333352       0.45027586 </v>
    <v>       0.99999978       0.66666703       0.45027586 </v>
    <v>       0.33333329       0.00000000       0.45027586 </v>
    <v>       0.33333318       0.33333352       0.45027586 </v>
    <v>       0.33333307       0.66666703       0.45027586 </v>
    <v>       0.66666659       0.00000000       0.45027586 </v>
    <v>       0.66666648       0.33333352       0.45027586 </v>
    <v>       0.66666637       0.66666703       0.45027586 </v>
    <v>       0.11111093       0.11111143       0.51911621 </v>
    <v>       0.11111120       0.44444418       0.51911621 </v>
    <v>       0.11111109       0.77777770       0.51911621 </v>
    <v>       0.44444423       0.11111143       0.51911621 </v>
    <v>       0.44444450       0.44444418       0.51911621 </v>
    <v>       0.44444439       0.77777770       0.51911621 </v>
    <v>       0.77777752       0.11111143       0.51911621 </v>
    <v>       0.77777779       0.44444418       0.51911621 </v>
    <v>       0.77777768       0.77777770       0.51911621 </v>
    <v>       0.27777824       0.27777742       0.10434517 </v>
    <v>       0.27777813       0.61111094       0.10434517 </v>
    <v>       0.27777802       0.94444445       0.10434517 </v>
    <v>       0.61111153       0.27777742       0.10434517 </v>
    <v>       0.61111142       0.61111094       0.10434517 </v>
    <v>       0.61111131       0.94444445       0.10434517 </v>
    <v>       0.94444483       0.27777742       0.10434517 </v>
    <v>       0.94444472       0.61111094       0.10434517 </v>
    <v>       0.94444461       0.94444445       0.10434517 </v>
    <v>       0.38888917       0.38888885       0.17318552 </v>
    <v>       0.38888906       0.72222236       0.17318552 </v>
    <v>       0.38888928       0.05555533       0.17318552 </v>
    <v>       0.72222247       0.38888885       0.17318552 </v>
    <v>       0.72222236       0.72222236       0.17318552 </v>
    <v>       0.72222258       0.05555533       0.17318552 </v>
    <v>       0.05555588       0.38888885       0.17318552 </v>
    <v>       0.05555577       0.72222236       0.17318552 </v>
    <v>       0.05555599       0.05555533       0.17318552 </v>
    <v>       0.50000011       0.50000027       0.24249897 </v>
    <v>       0.50000038       0.83333303       0.24249897 </v>
    <v>       0.50000022       0.16666676       0.24249897 </v>
    <v>       0.83333340       0.50000027       0.24249897 </v>
    <v>       0.83333367       0.83333303       0.24249897 </v>
    <v>       0.83333351       0.16666676       0.24249897 </v>
    <v>       0.16666681       0.50000027       0.24249897 </v>
    <v>       0.16666708       0.83333303       0.24249897 </v>
    <v>       0.16666692       0.16666676       0.24249897 </v>
    <v>       0.61111142       0.61111094       0.31173069 </v>
    <v>       0.61111131       0.94444445       0.31173069 </v>
    <v>       0.61111153       0.27777742       0.31173069 </v>
    <v>       0.94444472       0.61111094       0.31173069 </v>
    <v>       0.94444461       0.94444445       0.31173069 </v>
    <v>       0.94444483       0.27777742       0.31173069 </v>
    <v>       0.27777813       0.61111094       0.31173069 </v>
    <v>       0.27777802       0.94444445       0.31173069 </v>
    <v>       0.27777824       0.27777742       0.31173069 </v>
    <v>       0.72222236       0.72222236       0.38096241 </v>
    <v>       0.72222258       0.05555533       0.38096241 </v>
    <v>       0.72222247       0.38888885       0.38096241 </v>
    <v>       0.05555577       0.72222236       0.38096241 </v>
    <v>       0.05555599       0.05555533       0.38096241 </v>
    <v>       0.05555588       0.38888885       0.38096241 </v>
    <v>       0.38888906       0.72222236       0.38096241 </v>
    <v>       0.38888928       0.05555533       0.38096241 </v>
    <v>       0.38888917       0.38888885       0.38096241 </v>
    <v>       0.83333367       0.83333303       0.45027586 </v>
    <v>       0.83333351       0.16666676       0.45027586 </v>
    <v>       0.83333340       0.50000027       0.45027586 </v>
    <v>       0.16666708       0.83333303       0.45027586 </v>
    <v>       0.16666692       0.16666676       0.45027586 </v>
    <v>       0.16666681       0.50000027       0.45027586 </v>
    <v>       0.50000038       0.83333303       0.45027586 </v>
    <v>       0.50000022       0.16666676       0.45027586 </v>
    <v>       0.50000011       0.50000027       0.45027586 </v>
    <v>       0.94444461       0.94444445       0.51911621 </v>
    <v>       0.94444483       0.27777742       0.51911621 </v>
    <v>       0.94444472       0.61111094       0.51911621 </v>
    <v>       0.27777802       0.94444445       0.51911621 </v>
    <v>       0.27777824       0.27777742       0.51911621 </v>
    <v>       0.27777813       0.61111094       0.51911621 </v>
    <v>       0.61111131       0.94444445       0.51911621 </v>
    <v>       0.61111153       0.27777742       0.51911621 </v>
    <v>       0.61111142       0.61111094       0.51911621 </v>
    <v>       0.27777785       0.44444418       0.10434517 </v>
    <v>       0.27777774       0.77777770       0.10434517 </v>
    <v>       0.27777758       0.11111143       0.10434517 </v>
    <v>       0.61111115       0.44444418       0.10434517 </v>
    <v>       0.61111104       0.77777770       0.10434517 </v>
    <v>       0.61111088       0.11111143       0.10434517 </v>
    <v>       0.94444444       0.44444418       0.10434517 </v>
    <v>       0.94444433       0.77777770       0.10434517 </v>
    <v>       0.94444417       0.11111143       0.10434517 </v>
    <v>       0.38888879       0.55555561       0.17318552 </v>
    <v>       0.38888868       0.88888912       0.17318552 </v>
    <v>       0.38888890       0.22222209       0.17318552 </v>
    <v>       0.72222208       0.55555561       0.17318552 </v>
    <v>       0.72222197       0.88888912       0.17318552 </v>
    <v>       0.72222219       0.22222209       0.17318552 </v>
    <v>       0.05555549       0.55555561       0.17318552 </v>
    <v>       0.05555538       0.88888912       0.17318552 </v>
    <v>       0.05555560       0.22222209       0.17318552 </v>
    <v>       0.49999972       0.66666703       0.24249897 </v>
    <v>       0.49999994       0.00000000       0.24249897 </v>
    <v>       0.49999983       0.33333352       0.24249897 </v>
    <v>       0.83333302       0.66666703       0.24249897 </v>
    <v>       0.83333324       0.00000000       0.24249897 </v>
    <v>       0.83333313       0.33333352       0.24249897 </v>
    <v>       0.16666643       0.66666703       0.24249897 </v>
    <v>       0.16666665       0.00000000       0.24249897 </v>
    <v>       0.16666654       0.33333352       0.24249897 </v>
    <v>       0.61111104       0.77777770       0.31173069 </v>
    <v>       0.61111088       0.11111143       0.31173069 </v>
    <v>       0.61111115       0.44444418       0.31173069 </v>
    <v>       0.94444433       0.77777770       0.31173069 </v>
    <v>       0.94444417       0.11111143       0.31173069 </v>
    <v>       0.94444444       0.44444418       0.31173069 </v>
    <v>       0.27777774       0.77777770       0.31173069 </v>
    <v>       0.27777758       0.11111143       0.31173069 </v>
    <v>       0.27777785       0.44444418       0.31173069 </v>
    <v>       0.72222197       0.88888912       0.38096241 </v>
    <v>       0.72222219       0.22222209       0.38096241 </v>
    <v>       0.72222208       0.55555561       0.38096241 </v>
    <v>       0.05555538       0.88888912       0.38096241 </v>
    <v>       0.05555560       0.22222209       0.38096241 </v>
    <v>       0.05555549       0.55555561       0.38096241 </v>
    <v>       0.38888868       0.88888912       0.38096241 </v>
    <v>       0.38888890       0.22222209       0.38096241 </v>
    <v>       0.38888879       0.55555561       0.38096241 </v>
    <v>       0.83333324       0.00000000       0.45027586 </v>
    <v>       0.83333313       0.33333352       0.45027586 </v>
    <v>       0.83333302       0.66666703       0.45027586 </v>
    <v>       0.16666665       0.00000000       0.45027586 </v>
    <v>       0.16666654       0.33333352       0.45027586 </v>
    <v>       0.16666643       0.66666703       0.45027586 </v>
    <v>       0.49999994       0.00000000       0.45027586 </v>
    <v>       0.49999983       0.33333352       0.45027586 </v>
    <v>       0.49999972       0.66666703       0.45027586 </v>
    <v>       0.94444417       0.11111143       0.51911621 </v>
    <v>       0.94444444       0.44444418       0.51911621 </v>
    <v>       0.94444433       0.77777770       0.51911621 </v>
    <v>       0.27777758       0.11111143       0.51911621 </v>
    <v>       0.27777785       0.44444418       0.51911621 </v>
    <v>       0.27777774       0.77777770       0.51911621 </v>
    <v>       0.61111088       0.11111143       0.51911621 </v>
    <v>       0.61111115       0.44444418       0.51911621 </v>
    <v>       0.61111104       0.77777770       0.51911621 </v>
    <v>       0.44444488       0.27777742       0.10434517 </v>
    <v>       0.44444477       0.61111094       0.10434517 </v>
    <v>       0.44444466       0.94444445       0.10434517 </v>
    <v>       0.77777818       0.27777742       0.10434517 </v>
    <v>       0.77777807       0.61111094       0.10434517 </v>
    <v>       0.77777796       0.94444445       0.10434517 </v>
    <v>       0.11111159       0.27777742       0.10434517 </v>
    <v>       0.11111148       0.61111094       0.10434517 </v>
    <v>       0.11111137       0.94444445       0.10434517 </v>
    <v>       0.55555582       0.38888885       0.17318552 </v>
    <v>       0.55555571       0.72222236       0.17318552 </v>
    <v>       0.55555593       0.05555533       0.17318552 </v>
    <v>       0.88888911       0.38888885       0.17318552 </v>
    <v>       0.88888900       0.72222236       0.17318552 </v>
    <v>       0.88888922       0.05555533       0.17318552 </v>
    <v>       0.22222252       0.38888885       0.17318552 </v>
    <v>       0.22222241       0.72222236       0.17318552 </v>
    <v>       0.22222264       0.05555533       0.17318552 </v>
    <v>       0.66666675       0.50000027       0.24249897 </v>
    <v>       0.66666702       0.83333303       0.24249897 </v>
    <v>       0.66666686       0.16666676       0.24249897 </v>
    <v>       0.00000016       0.50000027       0.24249897 </v>
    <v>       0.00000043       0.83333303       0.24249897 </v>
    <v>       0.00000027       0.16666676       0.24249897 </v>
    <v>       0.33333346       0.50000027       0.24249897 </v>
    <v>       0.33333373       0.83333303       0.24249897 </v>
    <v>       0.33333357       0.16666676       0.24249897 </v>
    <v>       0.77777807       0.61111094       0.31173069 </v>
    <v>       0.77777796       0.94444445       0.31173069 </v>
    <v>       0.77777818       0.27777742       0.31173069 </v>
    <v>       0.11111148       0.61111094       0.31173069 </v>
    <v>       0.11111137       0.94444445       0.31173069 </v>
    <v>       0.11111159       0.27777742       0.31173069 </v>
    <v>       0.44444477       0.61111094       0.31173069 </v>
    <v>       0.44444466       0.94444445       0.31173069 </v>
    <v>       0.44444488       0.27777742       0.31173069 </v>
    <v>       0.88888900       0.72222236       0.38096241 </v>
    <v>       0.88888922       0.05555533       0.38096241 </v>
    <v>       0.88888911       0.38888885       0.38096241 </v>
    <v>       0.22222241       0.72222236       0.38096241 </v>
    <v>       0.22222264       0.05555533       0.38096241 </v>
    <v>       0.22222252       0.38888885       0.38096241 </v>
    <v>       0.55555571       0.72222236       0.38096241 </v>
    <v>       0.55555593       0.05555533       0.38096241 </v>
    <v>       0.55555582       0.38888885       0.38096241 </v>
    <v>       0.00000043       0.83333303       0.45027586 </v>
    <v>       0.00000027       0.16666676       0.45027586 </v>
    <v>       0.00000016       0.50000027       0.45027586 </v>
    <v>       0.33333373       0.83333303       0.45027586 </v>
    <v>       0.33333357       0.16666676       0.45027586 </v>
    <v>       0.33333346       0.50000027       0.45027586 </v>
    <v>       0.66666702       0.83333303       0.45027586 </v>
    <v>       0.66666686       0.16666676       0.45027586 </v>
    <v>       0.66666675       0.50000027       0.45027586 </v>
    <v>       0.11111137       0.94444445       0.51911621 </v>
    <v>       0.11111159       0.27777742       0.51911621 </v>
    <v>       0.11111148       0.61111094       0.51911621 </v>
    <v>       0.44444466       0.94444445       0.51911621 </v>
    <v>       0.44444488       0.27777742       0.51911621 </v>
    <v>       0.44444477       0.61111094       0.51911621 </v>
    <v>       0.77777796       0.94444445       0.51911621 </v>
    <v>       0.77777818       0.27777742       0.51911621 </v>
    <v>       0.77777807       0.61111094       0.51911621 </v>
    <v>       0.55561801       0.38880804       0.57068966 </v>
    <v>       0.49996510       0.50011387       0.57068966 </v>
   </varray>
  </structure>
  <varray name="primitive_index" >
   <v type="int" >        1 </v>
   <v type="int" >        2 </v>
   <v type="int" >        3 </v>
   <v type="int" >        4 </v>
   <v type="int" >        5 </v>
   <v type="int" >        6 </v>
   <v type="int" >        7 </v>
   <v type="int" >        8 </v>
   <v type="int" >        9 </v>
   <v type="int" >       10 </v>
   <v type="int" >       11 </v>
   <v type="int" >       12 </v>
   <v type="int" >       13 </v>
   <v type="int" >       14 </v>
   <v type="int" >       15 </v>
   <v type="int" >       16 </v>
   <v type="int" >       17 </v>
   <v type="int" >       18 </v>
   <v type="int" >       19 </v>
   <v type="int" >       20 </v>
   <v type="int" >       21 </v>
   <v type="int" >       22 </v>
   <v type="int" >       23 </v>
   <v type="int" >       24 </v>
   <v type="int" >       25 </v>
   <v type="int" >       26 </v>
   <v type="int" >       27 </v>
   <v type="int" >       28 </v>
   <v type="int" >       29 </v>
   <v type="int" >       30 </v>
   <v type="int" >       31 </v>
   <v type="int" >       32 </v>
   <v type="int" >       33 </v>
   <v type="int" >       34 </v>
   <v type="int" >       35 </v>
   <v type="int" >       36 </v>
   <v type="int" >       37 </v>
   <v type="int" >       38 </v>
   <v type="int" >       39 </v>
   <v type="int" >       40 </v>
   <v type="int" >       41 </v>
   <v type="int" >       42 </v>
   <v type="int" >       43 </v>
   <v type="int" >       44 </v>
   <v type="int" >       45 </v>
   <v type="int" >       46 </v>
   <v type="int" >       47 </v>
   <v type="int" >       48 </v>
   <v type="int" >       49 </v>
   <v type="int" >       50 </v>
   <v type="int" >       51 </v>
   <v type="int" >       52 </v>
   <v type="int" >       53 </v>
   <v type="int" >       54 </v>
   <v type="int" >       55 </v>
   <v type="int" >       56 </v>
   <v type="int" >       57 </v>
   <v type="int" >       58 </v>
   <v type="int" >       59 </v>
   <v type="int" >       60 </v>
   <v type="int" >       61 </v>
   <v type="int" >       62 </v>
   <v type="int" >       63 </v>
   <v type="int" >       64 </v>
   <v type="int" >       65 </v>
   <v type="int" >       66 </v>
   <v type="int" >       67 </v>
   <v type="int" >       68 </v>
   <v type="int" >       69 </v>
   <v type="int" >       70 </v>
   <v type="int" >       71 </v>
   <v type="int" >       72 </v>
   <v type="int" >       73 </v>
   <v type="int" >       74 </v>
   <v type="int" >       75 </v>
   <v type="int" >       76 </v>
   <v type="int" >       77 </v>
   <v type="int" >       78 </v>
   <v type="int" >       79 </v>
   <v type="int" >       80 </v>
   <v type="int" >       81 </v>
   <v type="int" >       82 </v>
   <v type="int" >       83 </v>
   <v type="int" >       84 </v>
   <v type="int" >       85 </v>
   <v type="int" >       86 </v>
   <v type="int" >       87 </v>
   <v type="int" >       88 </v>
   <v type="int" >       89 </v>
   <v type="int" >       90 </v>
   <v type="int" >       91 </v>
   <v type="int" >       92 </v>
   <v type="int" >       93 </v>
   <v type="int" >       94 </v>
   <v type="int" >       95 </v>
   <v type="int" >       96 </v>
   <v type="int" >       97 </v>
   <v type="int" >       98 </v>
   <v type="int" >       99 </v>
   <v type="int" >      100 </v>
   <v type="int" >      101 </v>
   <v type="int" >      102 </v>
   <v type="int" >      103 </v>
   <v type="int" >      104 </v>
   <v type="int" >      105 </v>
   <v type="int" >      106 </v>
   <v type="int" >      107 </v>
   <v type="int" >      108 </v>
   <v type="int" >      109 </v>
   <v type="int" >      110 </v>
   <v type="int" >      111 </v>
   <v type="int" >      112 </v>
   <v type="int" >      113 </v>
   <v type="int" >      114 </v>
   <v type="int" >      115 </v>
   <v type="int" >      116 </v>
   <v type="int" >      117 </v>
   <v type="int" >      118 </v>
   <v type="int" >      119 </v>
   <v type="int" >      120 </v>
   <v type="int" >      121 </v>
   <v type="int" >      122 </v>
   <v type="int" >      123 </v>
   <v type="int" >      124 </v>
   <v type="int" >      125 </v>
   <v type="int" >      126 </v>
   <v type="int" >      127 </v>
   <v type="int" >      128 </v>
   <v type="int" >      129 </v>
   <v type="int" >      130 </v>
   <v type="int" >      131 </v>
   <v type="int" >      132 </v>
   <v type="int" >      133 </v>
   <v type="int" >      134 </v>
   <v type="int" >      135 </v>
   <v type="int" >      136 </v>
   <v type="int" >      137 </v>
   <v type="int" >      138 </v>
   <v type="int" >      139 </v>
   <v type="int" >      140 </v>
   <v type="int" >      141 </v>
   <v type="int" >      142 </v>
   <v type="int" >      143 </v>
   <v type="int" >      144 </v>
   <v type="int" >      145 </v>
   <v type="int" >      146 </v>
   <v type="int" >      147 </v>
   <v type="int" >      148 </v>
   <v type="int" >      149 </v>
   <v type="int" >      150 </v>
   <v type="int" >      151 </v>
   <v type="int" >      152 </v>
   <v type="int" >      153 </v>
   <v type="int" >      154 </v>
   <v type="int" >      155 </v>
   <v type="int" >      156 </v>
   <v type="int" >      157 </v>
   <v type="int" >      158 </v>
   <v type="int" >      159 </v>
   <v type="int" >      160 </v>
   <v type="int" >      161 </v>
   <v type="int" >      162 </v>
   <v type="int" >      163 </v>
   <v type="int" >      164 </v>
   <v type="int" >      165 </v>
   <v type="int" >      166 </v>
   <v type="int" >      167 </v>
   <v type="int" >      168 </v>
   <v type="int" >      169 </v>
   <v type="int" >      170 </v>
   <v type="int" >      171 </v>
   <v type="int" >      172 </v>
   <v type="int" >      173 </v>
   <v type="int" >      174 </v>
   <v type="int" >      175 </v>
   <v type="int" >      176 </v>
   <v type="int" >      177 </v>
   <v type="int" >      178 </v>
   <v type="int" >      179 </v>
   <v type="int" >      180 </v>
   <v type="int" >      181 </v>
   <v type="int" >      182 </v>
   <v type="int" >      183 </v>
   <v type="int" >      184 </v>
   <v type="int" >      185 </v>
   <v type="int" >      186 </v>
   <v type="int" >      187 </v>
   <v type="int" >      188 </v>
   <v type="int" >      189 </v>
   <v type="int" >      190 </v>
   <v type="int" >      191 </v>
   <v type="int" >      192 </v>
   <v type="int" >      193 </v>
   <v type="int" >      194 </v>
   <v type="int" >      195 </v>
   <v type="int" >      196 </v>
   <v type="int" >      197 </v>
   <v type="int" >      198 </v>
   <v type="int" >      199 </v>
   <v type="int" >      200 </v>
   <v type="int" >      201 </v>
   <v type="int" >      202 </v>
   <v type="int" >      203 </v>
   <v type="int" >      204 </v>
   <v type="int" >      205 </v>
   <v type="int" >      206 </v>
   <v type="int" >      207 </v>
   <v type="int" >      208 </v>
   <v type="int" >      209 </v>
   <v type="int" >      210 </v>
   <v type="int" >      211 </v>
   <v type="int" >      212 </v>
   <v type="int" >      213 </v>
   <v type="int" >      214 </v>
   <v type="int" >      215 </v>
   <v type="int" >      216 </v>
   <v type="int" >      217 </v>
   <v type="int" >      218 </v>
   <v type="int" >      219 </v>
   <v type="int" >      220 </v>
   <v type="int" >      221 </v>
   <v type="int" >      222 </v>
   <v type="int" >      223 </v>
   <v type="int" >      224 </v>
   <v type="int" >      225 </v>
   <v type="int" >      226 </v>
   <v type="int" >      227 </v>
   <v type="int" >      228 </v>
   <v type="int" >      229 </v>
   <v type="int" >      230 </v>
   <v type="int" >      231 </v>
   <v type="int" >      232 </v>
   <v type="int" >      233 </v>
   <v type="int" >      234 </v>
   <v type="int" >      235 </v>
   <v type="int" >      236 </v>
   <v type="int" >      237 </v>
   <v type="int" >      238 </v>
   <v type="int" >      239 </v>
   <v type="int" >      240 </v>
   <v type="int" >      241 </v>
   <v type="int" >      242 </v>
   <v type="int" >      243 </v>
   <v type="int" >      244 </v>
   <v type="int" >      245 </v>
   <v type="int" >      246 </v>
   <v type="int" >      247 </v>
   <v type="int" >      248 </v>
   <v type="int" >      249 </v>
   <v type="int" >      250 </v>
   <v type="int" >      251 </v>
   <v type="int" >      252 </v>
   <v type="int" >      253 </v>
   <v type="int" >      254 </v>
  </varray>
 </primitive_cell>
 <kpoints>
  <generation param="Gamma">
   <v type="int" name="divisions">       2        2        1 </v>
   <v name="usershift">      0.00000000       0.00000000       0.00000000 </v>
   <v name="genvec1">      0.50000000      -0.00000000       0.00000000 </v>
   <v name="genvec2">      0.00000000       0.50000000       0.00000000 </v>
   <v name="genvec3">      0.00000000       0.00000000       1.00000000 </v>
   <v name="shift">      0.00000000       0.00000000       0.00000000 </v>
  </generation>
  <varray name="kpointlist" >
   <v>       0.00000000       0.00000000       0.00000000 </v>
   <v>       0.50000000       0.00000000       0.00000000 </v>
   <v>       0.50000000       0.50000000       0.00000000 </v>
   <v>       0.00000000       0.50000000       0.00000000 </v>
  </varray>
  <varray name="weights" >
   <v>       0.25000000 </v>
   <v>       0.25000000 </v>
   <v>       0.25000000 </v>
   <v>       0.25000000 </v>
  </varray>
 </kpoints>
 <parameters>
  <separator name="general" >
   <i type="string" name="SYSTEM">NiAl</i>
   <i type="logical" name="LCOMPAT"> F  </i>
  </separator>
  <separator name="electronic" >
   <i type="string" name="PREC">normal</i>
   <i name="ENMAX">    360.00000000</i>
   <i name="ENAUG">   1139.60900000</i>
   <i name="EDIFF">      0.00000500</i>
   <i type="int" name="IALGO">    38</i>
   <i type="int" name="IWAVPR">    10</i>
   <i type="int" name="NBANDS">  1519</i>
   <i type="int" name="NBANDSLOW">    -1</i>
   <i type="int" name="NBANDSHIGH">    -1</i>
   <i name="NELECT">   2532.00000000</i>
   <i type="int" name="TURBO">     0</i>
   <i type="int" name="IRESTART">     0</i>
   <i type="int" name="NREBOOT">     0</i>
   <i type="int" name="NMIN">     0</i>
   <i name="EREF">      0.00000000</i>
   <separator name="electronic smearing" >
    <i type="int" name="ISMEAR">     0</i>
    <i name="SIGMA">      0.05000000</i>
    <i name="KSPACING">      0.50000000</i>
    <i type="logical" name="KGAMMA"> T  </i>
    <i type="logical" name="KBLOWUP"> T  </i>
   </separator>
   <separator name="electronic projectors" >
    <i type="logical" name="LREAL"> T  </i>
    <v name="ROPT">     -0.00050000     -0.00050000</v>
    <i type="int" name="LMAXPAW">  -100</i>
    <i type="int" name="LMAXMIX">     2</i>
    <i type="logical" name="NLSPLINE"> F  </i>
   </separator>
   <separator name="electronic startup" >
    <i type="int" name="ISTART">     0</i>
    <i type="int" name="ICHARG">     2</i>
    <i type="int" name="INIWAV">     1</i>
   </separator>
   <separator name="electronic spin" >
    <i type="int" name="ISPIN">     1</i>
    <i type="logical" name="LNONCOLLINEAR"> F  </i>
    <v name="MAGMOM">      1.00000000      1.00000000      1.00000000      1.00000000      1.00000000      1.00000000      1.00000000      1.00000000      1.00000000      1.00000000      1.00000000      1.00000000      1.00000000      1.00000000      1.00000000      1.00000000      1.00000000      1.00000000      1.00000000      1.00000000
      1.00000000      1.00000000      1.00000000      1.00000000      1.00000000      1.00000000      1.00000000      1.00000000      1.00000000      1.00000000      1.00000000      1.00000000      1.00000000      1.00000000      1.00000000      1.00000000      1.00000000      1.00000000      1.00000000      1.00000000
      1.00000000      1.00000000      1.00000000      1.00000000      1.00000000      1.00000000      1.00000000      1.00000000      1.00000000      1.00000000      1.00000000      1.00000000      1.00000000      1.00000000      1.00000000      1.00000000      1.00000000      1.00000000      1.00000000      1.00000000
      1.00000000      1.00000000      1.00000000      1.00000000      1.00000000      1.00000000      1.00000000      1.00000000      1.00000000      1.00000000      1.00000000      1.00000000      1.00000000      1.00000000      1.00000000      1.00000000      1.00000000      1.00000000      1.00000000      1.00000000
      1.00000000      1.00000000      1.00000000      1.00000000      1.00000000      1.00000000      1.00000000      1.00000000      1.00000000      1.00000000      1.00000000      1.00000000      1.00000000      1.00000000      1.00000000      1.00000000      1.00000000      1.00000000      1.00000000      1.00000000
      1.00000000      1.00000000      1.00000000      1.00000000      1.00000000      1.00000000      1.00000000      1.00000000      1.00000000      1.00000000      1.00000000      1.00000000      1.00000000      1.00000000      1.00000000      1.00000000      1.00000000      1.00000000      1.00000000      1.00000000
      1.00000000      1.00000000      1.00000000      1.00000000      1.00000000      1.00000000      1.00000000      1.00000000      1.00000000      1.00000000      1.00000000      1.00000000      1.00000000      1.00000000      1.00000000      1.00000000      1.00000000      1.00000000      1.00000000      1.00000000
      1.00000000      1.00000000      1.00000000      1.00000000      1.00000000      1.00000000      1.00000000      1.00000000      1.00000000      1.00000000      1.00000000      1.00000000      1.00000000      1.00000000      1.00000000      1.00000000      1.00000000      1.00000000      1.00000000      1.00000000
      1.00000000      1.00000000      1.00000000      1.00000000      1.00000000      1.00000000      1.00000000      1.00000000      1.00000000      1.00000000      1.00000000      1.00000000      1.00000000      1.00000000      1.00000000      1.00000000      1.00000000      1.00000000      1.00000000      1.00000000
      1.00000000      1.00000000      1.00000000      1.00000000      1.00000000      1.00000000      1.00000000      1.00000000      1.00000000      1.00000000      1.00000000      1.00000000      1.00000000      1.00000000      1.00000000      1.00000000      1.00000000      1.00000000      1.00000000      1.00000000
      1.00000000      1.00000000      1.00000000      1.00000000      1.00000000      1.00000000      1.00000000      1.00000000      1.00000000      1.00000000      1.00000000      1.00000000      1.00000000      1.00000000      1.00000000      1.00000000      1.00000000      1.00000000      1.00000000      1.00000000
      1.00000000      1.00000000      1.00000000      1.00000000      1.00000000      1.00000000      1.00000000      1.00000000      1.00000000      1.00000000      1.00000000      1.00000000      1.00000000      1.00000000      1.00000000      1.00000000      1.00000000      1.00000000      1.00000000      1.00000000
      1.00000000      1.00000000      1.00000000      1.00000000      1.00000000      1.00000000      1.00000000      1.00000000      1.00000000      1.00000000      1.00000000      1.00000000      1.00000000      1.00000000</v>
    <i name="NUPDOWN">     -1.00000000</i>
    <i type="logical" name="LSORBIT"> F  </i>
    <v name="SAXIS">      0.00000000      0.00000000      1.00000000</v>
    <i type="logical" name="LSPIRAL"> F  </i>
    <v name="QSPIRAL">      0.00000000      0.00000000      0.00000000</v>
    <i type="logical" name="LZEROZ"> F  </i>
   </separator>
   <separator name="electronic exchange-correlation" >
    <i type="logical" name="LASPH"> F  </i>
    <i type="logical" name="LMETAGGA"> F  </i>
   </separator>
   <separator name="electronic convergence" >
    <i type="int" name="NELM">   250</i>
    <i type="int" name="NELMDL">    -5</i>
    <i type="int" name="NELMIN">     6</i>
    <i name="ENINI">    360.00000000</i>
    <separator name="electronic convergence detail" >
     <i type="logical" name="LDIAG"> T  </i>
     <i type="logical" name="LSUBROT"> F  </i>
     <i name="WEIMIN">      0.00000000</i>
     <i name="EBREAK">      0.00000000</i>
     <i name="DEPER">      0.30000000</i>
     <i type="int" name="NRMM">     4</i>
     <i name="TIME">      0.40000000</i>
    </separator>
   </separator>
   <separator name="electronic mixer" >
    <i name="AMIX">      0.40000000</i>
    <i name="BMIX">      1.00000000</i>
    <i name="AMIN">      0.10000000</i>
    <i name="AMIX_MAG">      1.60000000</i>
    <i name="BMIX_MAG">      1.00000000</i>
    <separator name="electronic mixer details" >
     <i type="int" name="IMIX">     4</i>
     <i type="logical" name="MIXFIRST"> F  </i>
     <i type="int" name="MAXMIX">   -45</i>
     <i name="WC">    100.00000000</i>
     <i type="int" name="INIMIX">     1</i>
     <i type="int" name="MIXPRE">     1</i>
     <i type="int" name="MREMOVE">     5</i>
    </separator>
   </separator>
   <separator name="electronic dipolcorrection" >
    <i type="logical" name="LDIPOL"> F  </i>
    <i type="logical" name="LMONO"> F  </i>
    <i type="int" name="IDIPOL">     0</i>
    <i name="EPSILON">      1.00000000</i>
    <v name="DIPOL">   -100.00000000   -100.00000000   -100.00000000</v>
    <i name="EFIELD">      0.00000000</i>
   </separator>
  </separator>
  <separator name="grids" >
   <i type="int" name="NGX">    70</i>
   <i type="int" name="NGY">    70</i>
   <i type="int" name="NGZ">   140</i>
   <i type="int" name="NGXF">   140</i>
   <i type="int" name="NGYF">   140</i>
   <i type="int" name="NGZF">   280</i>
   <i type="logical" name="ADDGRID"> F  </i>
  </separator>
  <separator name="ionic" >
   <i type="int" name="NSW">     0</i>
   <i type="int" name="IBRION">    -1</i>
   <i type="int" name="MDALGO">     0</i>
   <i type="int" name="ISIF">     0</i>
   <i name="PSTRESS">      0.00000000</i>
   <i name="EDIFFG">      0.00005000</i>
   <i type="int" name="NFREE">     0</i>
   <i name="POTIM">      0.50000000</i>
   <i name="SMASS">     -3.00000000</i>
   <i name="SCALEE">      1.00000000</i>
  </separator>
  <separator name="ionic md" >
   <i name="TEBEG">      0.00010000</i>
   <i name="TEEND">      0.00010000</i>
   <i type="int" name="NBLOCK">     1</i>
   <i type="int" name="KBLOCK">     1</i>
   <i type="int" name="NPACO">   256</i>
   <i name="APACO">     16.00000000</i>
  </separator>
  <separator name="symmetry" >
   <i type="int" name="ISYM">     2</i>
   <i name="SYMPREC">      0.00001000</i>
  </separator>
  <separator name="dos" >
   <i type="int" name="LORBIT">     0</i>
   <v name="RWIGS">     -1.00000000     -1.00000000</v>
   <i type="int" name="NEDOS">   301</i>
   <i name="EMIN">     10.00000000</i>
   <i name="EMAX">    -10.00000000</i>
   <i name="EFERMI">      0.00000000</i>
  </separator>
  <separator name="writing" >
   <i type="int" name="NWRITE">     2</i>
   <i type="logical" name="LWAVE"> F  </i>
   <i type="logical" name="LDOWNSAMPLE"> F  </i>
   <i type="logical" name="LCHARG"> F  </i>
   <i type="logical" name="LPARD"> F  </i>
   <i type="logical" name="LVTOT"> F  </i>
   <i type="logical" name="LVHAR"> F  </i>
   <i type="logical" name="LELF"> F  </i>
   <i type="logical" name="LOPTICS"> F  </i>
   <v name="STM">      0.00000000      0.00000000      0.00000000      0.00000000      0.00000000      0.00000000      0.00000000</v>
  </separator>
  <separator name="performance" >
   <i type="int" name="NPAR">     1</i>
   <i type="int" name="NSIM">     4</i>
   <i type="int" name="NBLK">    -1</i>
   <i type="logical" name="LPLANE"> T  </i>
   <i type="logical" name="LSCALAPACK"> T  </i>
   <i type="logical" name="LSCAAWARE"> F  </i>
   <i type="logical" name="LSCALU"> F  </i>
   <i type="logical" name="LASYNC"> F  </i>
   <i type="logical" name="LORBITALREAL"> F  </i>
  </separator>
  <separator name="miscellaneous" >
   <i type="int" name="IDIOT">     3</i>
   <i type="int" name="PHON_NSTRUCT">    -1</i>
   <i type="logical" name="LMUSIC"> F  </i>
   <v name="POMASS">     58.69000000     16.00000000</v>
   <v name="DARWINR">      0.00000000      0.00000000</v>
   <v name="DARWINV">      1.00000000      1.00000000</v>
   <i type="logical" name="LCORR"> T  </i>
  </separator>
  <i type="logical" name="GGA_COMPAT"> T  </i>
  <i type="logical" name="LBERRY"> F  </i>
  <i type="int" name="ICORELEVEL">     0</i>
  <i type="logical" name="LDAU"> F  </i>
  <i type="int" name="I_CONSTRAINED_M">     0</i>
  <separator name="electronic exchange-correlation" >
   <i type="string" name="GGA">--</i>
   <i type="int" name="VOSKOWN">     0</i>
   <i type="logical" name="LHFCALC"> F  </i>
   <i type="string" name="PRECFOCK"></i>
   <i type="logical" name="LSYMGRAD"> F  </i>
   <i type="logical" name="LHFONE"> F  </i>
   <i type="logical" name="LRHFCALC"> F  </i>
   <i type="logical" name="LTHOMAS"> F  </i>
   <i type="logical" name="LMODELHF"> F  </i>
   <i type="logical" name="LFOCKACE"> F  </i>
   <i name="ENCUT4O">     -1.00000000</i>
   <i type="int" name="EXXOEP">     0</i>
   <i type="int" name="FOURORBIT">     0</i>
   <i name="AEXX">      0.00000000</i>
   <i name="HFALPHA">      0.00000000</i>
   <i name="MCALPHA">      0.00000000</i>
   <i name="ALDAX">      1.00000000</i>
   <i name="AGGAX">      1.00000000</i>
   <i name="ALDAC">      1.00000000</i>
   <i name="AGGAC">      1.00000000</i>
   <i type="int" name="NKREDX">     1</i>
   <i type="int" name="NKREDY">     1</i>
   <i type="int" name="NKREDZ">     1</i>
   <i type="logical" name="SHIFTRED"> F  </i>
   <i type="logical" name="ODDONLY"> F  </i>
   <i type="logical" name="EVENONLY"> F  </i>
   <i type="int" name="LMAXFOCK">     0</i>
   <i type="int" name="NMAXFOCKAE">     0</i>
   <i type="logical" name="LFOCKAEDFT"> F  </i>
   <i name="HFSCREEN">      0.00000000</i>
   <i name="HFSCREENC">      0.00000000</i>
   <i type="int" name="NBANDSGWLOW">     0</i>
  </separator>
  <separator name="vdW DFT" >
   <i type="logical" name="LUSE_VDW"> F  </i>
   <i name="Zab_VDW">     -0.84910000</i>
   <i name="PARAM1">      0.12340000</i>
   <i name="PARAM2">      1.00000000</i>
   <i name="PARAM3">      0.00000000</i>
  </separator>
  <separator name="model GW" >
   <i type="int" name="MODEL_GW">     0</i>
   <i name="MODEL_EPS0">     13.60989534</i>
   <i name="MODEL_ALPHA">      1.00000000</i>
  </separator>
  <separator name="linear response parameters" >
   <i type="logical" name="LEPSILON"> F  </i>
   <i type="logical" name="LRPA"> F  </i>
   <i type="logical" name="LNABLA"> F  </i>
   <i type="logical" name="LVEL"> F  </i>
   <i type="int" name="KINTER">     0</i>
   <i name="CSHIFT">      0.10000000</i>
   <i name="OMEGAMAX">     -1.00000000</i>
   <i name="DEG_THRESHOLD">      0.00200000</i>
   <i name="RTIME">     -0.10000000</i>
   <i name="WPLASMAI">      0.00000000</i>
   <v name="DFIELD">      0.00000000      0.00000000      0.00000000</v>
   <v name="WPLASMA">      0.00000000      0.00000000      0.00000000      0.00000000      0.00000000      0.00000000      0.00000000      0.00000000      0.00000000</v>
  </separator>
  <separator name="orbital magnetization" >
   <i type="logical" name="NUCIND"> F  </i>
   <v name="MAGPOS">      0.00000000      0.00000000      0.00000000</v>
   <i type="logical" name="LNICSALL"> T  </i>
   <i type="logical" name="ORBITALMAG"> F  </i>
   <i type="logical" name="LMAGBLOCH"> F  </i>
   <i type="logical" name="LCHIMAG"> F  </i>
   <i type="logical" name="LGAUGE"> T  </i>
   <i type="int" name="MAGATOM">     0</i>
   <v name="MAGDIPOL">      0.00000000      0.00000000      0.00000000</v>
   <v name="AVECCONST">      0.00000000      0.00000000      0.00000000</v>
  </separator>
  <separator name="response functions" >
   <i type="logical" name="LFINITE_TEMPERATURE"> F  </i>
   <i type="logical" name="LADDER"> F  </i>
   <i type="logical" name="LRPAFORCE"> F  </i>
   <i type="logical" name="LFXC"> F  </i>
   <i type="logical" name="LHARTREE"> T  </i>
   <i type="int" name="IBSE">     0</i>
   <v type="int" name="KPOINT">    -1     0     0     0</v>
   <i type="logical" name="LTCTC"> F  </i>
   <i type="logical" name="LTCTE"> F  </i>
   <i type="logical" name="LTETE"> F  </i>
   <i type="logical" name="LTRIPLET"> F  </i>
   <i type="logical" name="LFXCEPS"> F  </i>
   <i type="logical" name="LFXHEG"> F  </i>
   <i type="int" name="NATURALO">     2</i>
   <i type="logical" name="LHOLEGF"> F  </i>
   <i type="logical" name="L2ORDER"> F  </i>
   <i type="logical" name="LDMP1"> F  </i>
   <i type="logical" name="LMP2LT"> F  </i>
   <i type="logical" name="LSMP2LT"> F  </i>
   <i type="logical" name="LGWLF"> F  </i>
   <i name="ENCUTGW">     -2.00000000</i>
   <i name="ENCUTGWSOFT">     -2.00000000</i>
   <i name="ENCUTLF">     -1.00000000</i>
   <i type="logical" name="LESF_SPLINES"> F  </i>
   <i type="int" name="LMAXMP2">    -1</i>
   <i name="SCISSOR">      0.00000000</i>
   <i type="int" name="NOMEGA">     0</i>
   <i type="int" name="NOMEGAR">     0</i>
   <i type="int" name="NBANDSGW">    -1</i>
   <i type="int" name="NBANDSO">    -1</i>
   <i type="int" name="NBANDSV">    -1</i>
   <i type="int" name="NELM">   250</i>
   <i type="int" name="NELMHF">     1</i>
   <i type="int" name="DIM">     3</i>
   <i type="int" name="IESPILON">     4</i>
   <i type="int" name="ANTIRES">     0</i>
   <i name="OMEGAMAX">    -30.00000000</i>
   <i name="OMEGAMIN">    -30.00000000</i>
   <i name="OMEGATL">   -200.00000000</i>
   <i type="int" name="OMEGAGRID">     0</i>
   <i name="CSHIFT">     -0.10000000</i>
   <i type="logical" name="LSELFENERGY"> F  </i>
   <i type="logical" name="LSPECTRAL"> F  </i>
   <i type="logical" name="LSPECTRALGW"> F  </i>
   <i type="logical" name="LSINGLES"> F  </i>
   <i type="logical" name="LFERMIGW"> F  </i>
   <i type="logical" name="ODDONLYGW"> F  </i>
   <i type="logical" name="EVENONLYGW"> F  </i>
   <i type="int" name="NKREDLFX">     1</i>
   <i type="int" name="NKREDLFY">     1</i>
   <i type="int" name="NKREDLFZ">     1</i>
   <i type="int" name="MAXMEM">  2800</i>
   <i type="int" name="TELESCOPE">     0</i>
   <i type="int" name="NTAUPAR">    -1</i>
   <i type="int" name="NOMEGAPAR">    -1</i>
   <i name="DAMP_NEWTON">      0.80000001</i>
   <i name="LAMBDA">      1.00000000</i>
  </separator>
  <separator name="External order field" >
   <i name="OFIELD_KAPPA">      0.00000000</i>
   <v name="OFIELD_K">      0.00000000      0.00000000      0.00000000</v>
   <i name="OFIELD_Q6_NEAR">      0.00000000</i>
   <i name="OFIELD_Q6_FAR">      0.00000000</i>
   <i name="OFIELD_A">      0.00000000</i>
  </separator>
  <separator name="solvation model" >
   <i type="logical" name="LSOL"> F  </i>
  </separator>
 </parameters>
 <atominfo>
  <atoms>     254 </atoms>
  <types>       2 </types>
  <array name="atoms" >
   <dimension dim="1">ion</dimension>
   <field type="string">element</field>
   <field type="int">atomtype</field>
   <set>
    <rc><c>Ni</c><c>   1</c></rc>
    <rc><c>Ni</c><c>   1</c></rc>
    <rc><c>Ni</c><c>   1</c></rc>
    <rc><c>Ni</c><c>   1</c></rc>
    <rc><c>Ni</c><c>   1</c></rc>
    <rc><c>Ni</c><c>   1</c></rc>
    <rc><c>Ni</c><c>   1</c></rc>
    <rc><c>Ni</c><c>   1</c></rc>
    <rc><c>Ni</c><c>   1</c></rc>
    <rc><c>Ni</c><c>   1</c></rc>
    <rc><c>Ni</c><c>   1</c></rc>
    <rc><c>Ni</c><c>   1</c></rc>
    <rc><c>Ni</c><c>   1</c></rc>
    <rc><c>Ni</c><c>   1</c></rc>
    <rc><c>Ni</c><c>   1</c></rc>
    <rc><c>Ni</c><c>   1</c></rc>
    <rc><c>Ni</c><c>   1</c></rc>
    <rc><c>Ni</c><c>   1</c></rc>
    <rc><c>Ni</c><c>   1</c></rc>
    <rc><c>Ni</c><c>   1</c></rc>
    <rc><c>Ni</c><c>   1</c></rc>
    <rc><c>Ni</c><c>   1</c></rc>
    <rc><c>Ni</c><c>   1</c></rc>
    <rc><c>Ni</c><c>   1</c></rc>
    <rc><c>Ni</c><c>   1</c></rc>
    <rc><c>Ni</c><c>   1</c></rc>
    <rc><c>Ni</c><c>   1</c></rc>
    <rc><c>Ni</c><c>   1</c></rc>
    <rc><c>Ni</c><c>   1</c></rc>
    <rc><c>Ni</c><c>   1</c></rc>
    <rc><c>Ni</c><c>   1</c></rc>
    <rc><c>Ni</c><c>   1</c></rc>
    <rc><c>Ni</c><c>   1</c></rc>
    <rc><c>Ni</c><c>   1</c></rc>
    <rc><c>Ni</c><c>   1</c></rc>
    <rc><c>Ni</c><c>   1</c></rc>
    <rc><c>Ni</c><c>   1</c></rc>
    <rc><c>Ni</c><c>   1</c></rc>
    <rc><c>Ni</c><c>   1</c></rc>
    <rc><c>Ni</c><c>   1</c></rc>
    <rc><c>Ni</c><c>   1</c></rc>
    <rc><c>Ni</c><c>   1</c></rc>
    <rc><c>Ni</c><c>   1</c></rc>
    <rc><c>Ni</c><c>   1</c></rc>
    <rc><c>Ni</c><c>   1</c></rc>
    <rc><c>Ni</c><c>   1</c></rc>
    <rc><c>Ni</c><c>   1</c></rc>
    <rc><c>Ni</c><c>   1</c></rc>
    <rc><c>Ni</c><c>   1</c></rc>
    <rc><c>Ni</c><c>   1</c></rc>
    <rc><c>Ni</c><c>   1</c></rc>
    <rc><c>Ni</c><c>   1</c></rc>
    <rc><c>Ni</c><c>   1</c></rc>
    <rc><c>Ni</c><c>   1</c></rc>
    <rc><c>Ni</c><c>   1</c></rc>
    <rc><c>Ni</c><c>   1</c></rc>
    <rc><c>Ni</c><c>   1</c></rc>
    <rc><c>Ni</c><c>   1</c></rc>
    <rc><c>Ni</c><c>   1</c></rc>
    <rc><c>Ni</c><c>   1</c></rc>
    <rc><c>Ni</c><c>   1</c></rc>
    <rc><c>Ni</c><c>   1</c></rc>
    <rc><c>Ni</c><c>   1</c></rc>
    <rc><c>Ni</c><c>   1</c></rc>
    <rc><c>Ni</c><c>   1</c></rc>
    <rc><c>Ni</c><c>   1</c></rc>
    <rc><c>Ni</c><c>   1</c></rc>
    <rc><c>Ni</c><c>   1</c></rc>
    <rc><c>Ni</c><c>   1</c></rc>
    <rc><c>Ni</c><c>   1</c></rc>
    <rc><c>Ni</c><c>   1</c></rc>
    <rc><c>Ni</c><c>   1</c></rc>
    <rc><c>Ni</c><c>   1</c></rc>
    <rc><c>Ni</c><c>   1</c></rc>
    <rc><c>Ni</c><c>   1</c></rc>
    <rc><c>Ni</c><c>   1</c></rc>
    <rc><c>Ni</c><c>   1</c></rc>
    <rc><c>Ni</c><c>   1</c></rc>
    <rc><c>Ni</c><c>   1</c></rc>
    <rc><c>Ni</c><c>   1</c></rc>
    <rc><c>Ni</c><c>   1</c></rc>
    <rc><c>Ni</c><c>   1</c></rc>
    <rc><c>Ni</c><c>   1</c></rc>
    <rc><c>Ni</c><c>   1</c></rc>
    <rc><c>Ni</c><c>   1</c></rc>
    <rc><c>Ni</c><c>   1</c></rc>
    <rc><c>Ni</c><c>   1</c></rc>
    <rc><c>Ni</c><c>   1</c></rc>
    <rc><c>Ni</c><c>   1</c></rc>
    <rc><c>Ni</c><c>   1</c></rc>
    <rc><c>Ni</c><c>   1</c></rc>
    <rc><c>Ni</c><c>   1</c></rc>
    <rc><c>Ni</c><c>   1</c></rc>
    <rc><c>Ni</c><c>   1</c></rc>
    <rc><c>Ni</c><c>   1</c></rc>
    <rc><c>Ni</c><c>   1</c></rc>
    <rc><c>Ni</c><c>   1</c></rc>
    <rc><c>Ni</c><c>   1</c></rc>
    <rc><c>Ni</c><c>   1</c></rc>
    <rc><c>Ni</c><c>   1</c></rc>
    <rc><c>Ni</c><c>   1</c></rc>
    <rc><c>Ni</c><c>   1</c></rc>
    <rc><c>Ni</c><c>   1</c></rc>
    <rc><c>Ni</c><c>   1</c></rc>
    <rc><c>Ni</c><c>   1</c></rc>
    <rc><c>Ni</c><c>   1</c></rc>
    <rc><c>Ni</c><c>   1</c></rc>
    <rc><c>Ni</c><c>   1</c></rc>
    <rc><c>Ni</c><c>   1</c></rc>
    <rc><c>Ni</c><c>   1</c></rc>
    <rc><c>Ni</c><c>   1</c></rc>
    <rc><c>Ni</c><c>   1</c></rc>
    <rc><c>Ni</c><c>   1</c></rc>
    <rc><c>Ni</c><c>   1</c></rc>
    <rc><c>Ni</c><c>   1</c></rc>
    <rc><c>Ni</c><c>   1</c></rc>
    <rc><c>Ni</c><c>   1</c></rc>
    <rc><c>Ni</c><c>   1</c></rc>
    <rc><c>Ni</c><c>   1</c></rc>
    <rc><c>Ni</c><c>   1</c></rc>
    <rc><c>Ni</c><c>   1</c></rc>
    <rc><c>Ni</c><c>   1</c></rc>
    <rc><c>Ni</c><c>   1</c></rc>
    <rc><c>Ni</c><c>   1</c></rc>
    <rc><c>Ni</c><c>   1</c></rc>
    <rc><c>Ni</c><c>   1</c></rc>
    <rc><c>Ni</c><c>   1</c></rc>
    <rc><c>Ni</c><c>   1</c></rc>
    <rc><c>Ni</c><c>   1</c></rc>
    <rc><c>Ni</c><c>   1</c></rc>
    <rc><c>Ni</c><c>   1</c></rc>
    <rc><c>Ni</c><c>   1</c></rc>
    <rc><c>Ni</c><c>   1</c></rc>
    <rc><c>Ni</c><c>   1</c></rc>
    <rc><c>Ni</c><c>   1</c></rc>
    <rc><c>Ni</c><c>   1</c></rc>
    <rc><c>Ni</c><c>   1</c></rc>
    <rc><c>Ni</c><c>   1</c></rc>
    <rc><c>Ni</c><c>   1</c></rc>
    <rc><c>Ni</c><c>   1</c></rc>
    <rc><c>Ni</c><c>   1</c></rc>
    <rc><c>Ni</c><c>   1</c></rc>
    <rc><c>Ni</c><c>   1</c></rc>
    <rc><c>Ni</c><c>   1</c></rc>
    <rc><c>Ni</c><c>   1</c></rc>
    <rc><c>Ni</c><c>   1</c></rc>
    <rc><c>Ni</c><c>   1</c></rc>
    <rc><c>Ni</c><c>   1</c></rc>
    <rc><c>Ni</c><c>   1</c></rc>
    <rc><c>Ni</c><c>   1</c></rc>
    <rc><c>Ni</c><c>   1</c></rc>
    <rc><c>Ni</c><c>   1</c></rc>
    <rc><c>Ni</c><c>   1</c></rc>
    <rc><c>Ni</c><c>   1</c></rc>
    <rc><c>Ni</c><c>   1</c></rc>
    <rc><c>Ni</c><c>   1</c></rc>
    <rc><c>Ni</c><c>   1</c></rc>
    <rc><c>Ni</c><c>   1</c></rc>
    <rc><c>Ni</c><c>   1</c></rc>
    <rc><c>Ni</c><c>   1</c></rc>
    <rc><c>Ni</c><c>   1</c></rc>
    <rc><c>Ni</c><c>   1</c></rc>
    <rc><c>Ni</c><c>   1</c></rc>
    <rc><c>Ni</c><c>   1</c></rc>
    <rc><c>Ni</c><c>   1</c></rc>
    <rc><c>Ni</c><c>   1</c></rc>
    <rc><c>Ni</c><c>   1</c></rc>
    <rc><c>Ni</c><c>   1</c></rc>
    <rc><c>Ni</c><c>   1</c></rc>
    <rc><c>Ni</c><c>   1</c></rc>
    <rc><c>Ni</c><c>   1</c></rc>
    <rc><c>Ni</c><c>   1</c></rc>
    <rc><c>Ni</c><c>   1</c></rc>
    <rc><c>Ni</c><c>   1</c></rc>
    <rc><c>Ni</c><c>   1</c></rc>
    <rc><c>Ni</c><c>   1</c></rc>
    <rc><c>Ni</c><c>   1</c></rc>
    <rc><c>Ni</c><c>   1</c></rc>
    <rc><c>Ni</c><c>   1</c></rc>
    <rc><c>Ni</c><c>   1</c></rc>
    <rc><c>Ni</c><c>   1</c></rc>
    <rc><c>Ni</c><c>   1</c></rc>
    <rc><c>Ni</c><c>   1</c></rc>
    <rc><c>Ni</c><c>   1</c></rc>
    <rc><c>Ni</c><c>   1</c></rc>
    <rc><c>Ni</c><c>   1</c></rc>
    <rc><c>Ni</c><c>   1</c></rc>
    <rc><c>Ni</c><c>   1</c></rc>
    <rc><c>Ni</c><c>   1</c></rc>
    <rc><c>Ni</c><c>   1</c></rc>
    <rc><c>Ni</c><c>   1</c></rc>
    <rc><c>Ni</c><c>   1</c></rc>
    <rc><c>Ni</c><c>   1</c></rc>
    <rc><c>Ni</c><c>   1</c></rc>
    <rc><c>Ni</c><c>   1</c></rc>
    <rc><c>Ni</c><c>   1</c></rc>
    <rc><c>Ni</c><c>   1</c></rc>
    <rc><c>Ni</c><c>   1</c></rc>
    <rc><c>Ni</c><c>   1</c></rc>
    <rc><c>Ni</c><c>   1</c></rc>
    <rc><c>Ni</c><c>   1</c></rc>
    <rc><c>Ni</c><c>   1</c></rc>
    <rc><c>Ni</c><c>   1</c></rc>
    <rc><c>Ni</c><c>   1</c></rc>
    <rc><c>Ni</c><c>   1</c></rc>
    <rc><c>Ni</c><c>   1</c></rc>
    <rc><c>Ni</c><c>   1</c></rc>
    <rc><c>Ni</c><c>   1</c></rc>
    <rc><c>Ni</c><c>   1</c></rc>
    <rc><c>Ni</c><c>   1</c></rc>
    <rc><c>Ni</c><c>   1</c></rc>
    <rc><c>Ni</c><c>   1</c></rc>
    <rc><c>Ni</c><c>   1</c></rc>
    <rc><c>Ni</c><c>   1</c></rc>
    <rc><c>Ni</c><c>   1</c></rc>
    <rc><c>Ni</c><c>   1</c></rc>
    <rc><c>Ni</c><c>   1</c></rc>
    <rc><c>Ni</c><c>   1</c></rc>
    <rc><c>Ni</c><c>   1</c></rc>
    <rc><c>Ni</c><c>   1</c></rc>
    <rc><c>Ni</c><c>   1</c></rc>
    <rc><c>Ni</c><c>   1</c></rc>
    <rc><c>Ni</c><c>   1</c></rc>
    <rc><c>Ni</c><c>   1</c></rc>
    <rc><c>Ni</c><c>   1</c></rc>
    <rc><c>Ni</c><c>   1</c></rc>
    <rc><c>Ni</c><c>   1</c></rc>
    <rc><c>Ni</c><c>   1</c></rc>
    <rc><c>Ni</c><c>   1</c></rc>
    <rc><c>Ni</c><c>   1</c></rc>
    <rc><c>Ni</c><c>   1</c></rc>
    <rc><c>Ni</c><c>   1</c></rc>
    <rc><c>Ni</c><c>   1</c></rc>
    <rc><c>Ni</c><c>   1</c></rc>
    <rc><c>Ni</c><c>   1</c></rc>
    <rc><c>Ni</c><c>   1</c></rc>
    <rc><c>Ni</c><c>   1</c></rc>
    <rc><c>Ni</c><c>   1</c></rc>
    <rc><c>Ni</c><c>   1</c></rc>
    <rc><c>Ni</c><c>   1</c></rc>
    <rc><c>Ni</c><c>   1</c></rc>
    <rc><c>Ni</c><c>   1</c></rc>
    <rc><c>Ni</c><c>   1</c></rc>
    <rc><c>Ni</c><c>   1</c></rc>
    <rc><c>Ni</c><c>   1</c></rc>
    <rc><c>Ni</c><c>   1</c></rc>
    <rc><c>Ni</c><c>   1</c></rc>
    <rc><c>Ni</c><c>   1</c></rc>
    <rc><c>Ni</c><c>   1</c></rc>
    <rc><c>Ni</c><c>   1</c></rc>
    <rc><c>Ni</c><c>   1</c></rc>
    <rc><c>Ni</c><c>   1</c></rc>
    <rc><c>O </c><c>   2</c></rc>
    <rc><c>O </c><c>   2</c></rc>
   </set>
  </array>
  <array name="atomtypes" >
   <dimension dim="1">type</dimension>
   <field type="int">atomspertype</field>
   <field type="string">element</field>
   <field>mass</field>
   <field>valence</field>
   <field type="string">pseudopotential</field>
   <set>
    <rc><c> 252</c><c>Ni</c><c>     58.69000000</c><c>     10.00000000</c><c>  PAW Ni_GW 31Mar2010                   </c></rc>
    <rc><c>   2</c><c>O </c><c>     16.00000000</c><c>      6.00000000</c><c>  PAW O_GW 19Mar2012                    </c></rc>
   </set>
  </array>
 </atominfo>
 <structure name="initialpos" >
  <crystal>
   <varray name="basis" >
    <v>       0.00000000     -15.14622176       0.00000000 </v>
    <v>       0.00000000      -7.57311088     -13.11701281 </v>
    <v>      29.00000000       0.00000000       0.00000000 </v>
   </varray>
   <i name="volume">   5761.52236213 </i>
   <varray name="rec_basis" >
    <v>       0.00000000      -0.06602307       0.03811843 </v>
    <v>       0.00000000       0.00000000      -0.07623687 </v>
    <v>       0.03448276       0.00000000       0.00000000 </v>
   </varray>
  </crystal>
  <varray name="positions" >
   <v>       0.44444450       0.44444418       0.10434517 </v>
   <v>       0.44444439       0.77777770       0.10434517 </v>
   <v>       0.44444423       0.11111143       0.10434517 </v>
   <v>       0.77777779       0.44444418       0.10434517 </v>
   <v>       0.77777768       0.77777770       0.10434517 </v>
   <v>       0.77777752       0.11111143       0.10434517 </v>
   <v>       0.11111120       0.44444418       0.10434517 </v>
   <v>       0.11111109       0.77777770       0.10434517 </v>
   <v>       0.11111093       0.11111143       0.10434517 </v>
   <v>       0.55555543       0.55555561       0.17318552 </v>
   <v>       0.55555532       0.88888912       0.17318552 </v>
   <v>       0.55555554       0.22222209       0.17318552 </v>
   <v>       0.88888873       0.55555561       0.17318552 </v>
   <v>       0.88888862       0.88888912       0.17318552 </v>
   <v>       0.88888884       0.22222209       0.17318552 </v>
   <v>       0.22222214       0.55555561       0.17318552 </v>
   <v>       0.22222203       0.88888912       0.17318552 </v>
   <v>       0.22222225       0.22222209       0.17318552 </v>
   <v>       0.66666637       0.66666703       0.24249897 </v>
   <v>       0.66666659       0.00000000       0.24249897 </v>
   <v>       0.66666648       0.33333352       0.24249897 </v>
   <v>       0.99999978       0.66666703       0.24249897 </v>
   <v>       0.00000000       0.00000000       0.24249897 </v>
   <v>       0.99999989       0.33333352       0.24249897 </v>
   <v>       0.33333307       0.66666703       0.24249897 </v>
   <v>       0.33333329       0.00000000       0.24249897 </v>
   <v>       0.33333318       0.33333352       0.24249897 </v>
   <v>       0.77777768       0.77777770       0.31173069 </v>
   <v>       0.77777752       0.11111143       0.31173069 </v>
   <v>       0.77777779       0.44444418       0.31173069 </v>
   <v>       0.11111109       0.77777770       0.31173069 </v>
   <v>       0.11111093       0.11111143       0.31173069 </v>
   <v>       0.11111120       0.44444418       0.31173069 </v>
   <v>       0.44444439       0.77777770       0.31173069 </v>
   <v>       0.44444423       0.11111143       0.31173069 </v>
   <v>       0.44444450       0.44444418       0.31173069 </v>
   <v>       0.88888862       0.88888912       0.38096241 </v>
   <v>       0.88888884       0.22222209       0.38096241 </v>
   <v>       0.88888873       0.55555561       0.38096241 </v>
   <v>       0.22222203       0.88888912       0.38096241 </v>
   <v>       0.22222225       0.22222209       0.38096241 </v>
   <v>       0.22222214       0.55555561       0.38096241 </v>
   <v>       0.55555532       0.88888912       0.38096241 </v>
   <v>       0.55555554       0.22222209       0.38096241 </v>
   <v>       0.55555543       0.55555561       0.38096241 </v>
   <v>       0.00000000       0.00000000       0.45027586 </v>
   <v>       0.99999989       0.33333352       0.45027586 </v>
   <v>       0.99999978       0.66666703       0.45027586 </v>
   <v>       0.33333329       0.00000000       0.45027586 </v>
   <v>       0.33333318       0.33333352       0.45027586 </v>
   <v>       0.33333307       0.66666703       0.45027586 </v>
   <v>       0.66666659       0.00000000       0.45027586 </v>
   <v>       0.66666648       0.33333352       0.45027586 </v>
   <v>       0.66666637       0.66666703       0.45027586 </v>
   <v>       0.11111093       0.11111143       0.51911621 </v>
   <v>       0.11111120       0.44444418       0.51911621 </v>
   <v>       0.11111109       0.77777770       0.51911621 </v>
   <v>       0.44444423       0.11111143       0.51911621 </v>
   <v>       0.44444450       0.44444418       0.51911621 </v>
   <v>       0.44444439       0.77777770       0.51911621 </v>
   <v>       0.77777752       0.11111143       0.51911621 </v>
   <v>       0.77777779       0.44444418       0.51911621 </v>
   <v>       0.77777768       0.77777770       0.51911621 </v>
   <v>       0.27777824       0.27777742       0.10434517 </v>
   <v>       0.27777813       0.61111094       0.10434517 </v>
   <v>       0.27777802       0.94444445       0.10434517 </v>
   <v>       0.61111153       0.27777742       0.10434517 </v>
   <v>       0.61111142       0.61111094       0.10434517 </v>
   <v>       0.61111131       0.94444445       0.10434517 </v>
   <v>       0.94444483       0.27777742       0.10434517 </v>
   <v>       0.94444472       0.61111094       0.10434517 </v>
   <v>       0.94444461       0.94444445       0.10434517 </v>
   <v>       0.38888917       0.38888885       0.17318552 </v>
   <v>       0.38888906       0.72222236       0.17318552 </v>
   <v>       0.38888928       0.05555533       0.17318552 </v>
   <v>       0.72222247       0.38888885       0.17318552 </v>
   <v>       0.72222236       0.72222236       0.17318552 </v>
   <v>       0.72222258       0.05555533       0.17318552 </v>
   <v>       0.05555588       0.38888885       0.17318552 </v>
   <v>       0.05555577       0.72222236       0.17318552 </v>
   <v>       0.05555599       0.05555533       0.17318552 </v>
   <v>       0.50000011       0.50000027       0.24249897 </v>
   <v>       0.50000038       0.83333303       0.24249897 </v>
   <v>       0.50000022       0.16666676       0.24249897 </v>
   <v>       0.83333340       0.50000027       0.24249897 </v>
   <v>       0.83333367       0.83333303       0.24249897 </v>
   <v>       0.83333351       0.16666676       0.24249897 </v>
   <v>       0.16666681       0.50000027       0.24249897 </v>
   <v>       0.16666708       0.83333303       0.24249897 </v>
   <v>       0.16666692       0.16666676       0.24249897 </v>
   <v>       0.61111142       0.61111094       0.31173069 </v>
   <v>       0.61111131       0.94444445       0.31173069 </v>
   <v>       0.61111153       0.27777742       0.31173069 </v>
   <v>       0.94444472       0.61111094       0.31173069 </v>
   <v>       0.94444461       0.94444445       0.31173069 </v>
   <v>       0.94444483       0.27777742       0.31173069 </v>
   <v>       0.27777813       0.61111094       0.31173069 </v>
   <v>       0.27777802       0.94444445       0.31173069 </v>
   <v>       0.27777824       0.27777742       0.31173069 </v>
   <v>       0.72222236       0.72222236       0.38096241 </v>
   <v>       0.72222258       0.05555533       0.38096241 </v>
   <v>       0.72222247       0.38888885       0.38096241 </v>
   <v>       0.05555577       0.72222236       0.38096241 </v>
   <v>       0.05555599       0.05555533       0.38096241 </v>
   <v>       0.05555588       0.38888885       0.38096241 </v>
   <v>       0.38888906       0.72222236       0.38096241 </v>
   <v>       0.38888928       0.05555533       0.38096241 </v>
   <v>       0.38888917       0.38888885       0.38096241 </v>
   <v>       0.83333367       0.83333303       0.45027586 </v>
   <v>       0.83333351       0.16666676       0.45027586 </v>
   <v>       0.83333340       0.50000027       0.45027586 </v>
   <v>       0.16666708       0.83333303       0.45027586 </v>
   <v>       0.16666692       0.16666676       0.45027586 </v>
   <v>       0.16666681       0.50000027       0.45027586 </v>
   <v>       0.50000038       0.83333303       0.45027586 </v>
   <v>       0.50000022       0.16666676       0.45027586 </v>
   <v>       0.50000011       0.50000027       0.45027586 </v>
   <v>       0.94444461       0.94444445       0.51911621 </v>
   <v>       0.94444483       0.27777742       0.51911621 </v>
   <v>       0.94444472       0.61111094       0.51911621 </v>
   <v>       0.27777802       0.94444445       0.51911621 </v>
   <v>       0.27777824       0.27777742       0.51911621 </v>
   <v>       0.27777813       0.61111094       0.51911621 </v>
   <v>       0.61111131       0.94444445       0.51911621 </v>
   <v>       0.61111153       0.27777742       0.51911621 </v>
   <v>       0.61111142       0.61111094       0.51911621 </v>
   <v>       0.27777785       0.44444418       0.10434517 </v>
   <v>       0.27777774       0.77777770       0.10434517 </v>
   <v>       0.27777758       0.11111143       0.10434517 </v>
   <v>       0.61111115       0.44444418       0.10434517 </v>
   <v>       0.61111104       0.77777770       0.10434517 </v>
   <v>       0.61111088       0.11111143       0.10434517 </v>
   <v>       0.94444444       0.44444418       0.10434517 </v>
   <v>       0.94444433       0.77777770       0.10434517 </v>
   <v>       0.94444417       0.11111143       0.10434517 </v>
   <v>       0.38888879       0.55555561       0.17318552 </v>
   <v>       0.38888868       0.88888912       0.17318552 </v>
   <v>       0.38888890       0.22222209       0.17318552 </v>
   <v>       0.72222208       0.55555561       0.17318552 </v>
   <v>       0.72222197       0.88888912       0.17318552 </v>
   <v>       0.72222219       0.22222209       0.17318552 </v>
   <v>       0.05555549       0.55555561       0.17318552 </v>
   <v>       0.05555538       0.88888912       0.17318552 </v>
   <v>       0.05555560       0.22222209       0.17318552 </v>
   <v>       0.49999972       0.66666703       0.24249897 </v>
   <v>       0.49999994       0.00000000       0.24249897 </v>
   <v>       0.49999983       0.33333352       0.24249897 </v>
   <v>       0.83333302       0.66666703       0.24249897 </v>
   <v>       0.83333324       0.00000000       0.24249897 </v>
   <v>       0.83333313       0.33333352       0.24249897 </v>
   <v>       0.16666643       0.66666703       0.24249897 </v>
   <v>       0.16666665       0.00000000       0.24249897 </v>
   <v>       0.16666654       0.33333352       0.24249897 </v>
   <v>       0.61111104       0.77777770       0.31173069 </v>
   <v>       0.61111088       0.11111143       0.31173069 </v>
   <v>       0.61111115       0.44444418       0.31173069 </v>
   <v>       0.94444433       0.77777770       0.31173069 </v>
   <v>       0.94444417       0.11111143       0.31173069 </v>
   <v>       0.94444444       0.44444418       0.31173069 </v>
   <v>       0.27777774       0.77777770       0.31173069 </v>
   <v>       0.27777758       0.11111143       0.31173069 </v>
   <v>       0.27777785       0.44444418       0.31173069 </v>
   <v>       0.72222197       0.88888912       0.38096241 </v>
   <v>       0.72222219       0.22222209       0.38096241 </v>
   <v>       0.72222208       0.55555561       0.38096241 </v>
   <v>       0.05555538       0.88888912       0.38096241 </v>
   <v>       0.05555560       0.22222209       0.38096241 </v>
   <v>       0.05555549       0.55555561       0.38096241 </v>
   <v>       0.38888868       0.88888912       0.38096241 </v>
   <v>       0.38888890       0.22222209       0.38096241 </v>
   <v>       0.38888879       0.55555561       0.38096241 </v>
   <v>       0.83333324       0.00000000       0.45027586 </v>
   <v>       0.83333313       0.33333352       0.45027586 </v>
   <v>       0.83333302       0.66666703       0.45027586 </v>
   <v>       0.16666665       0.00000000       0.45027586 </v>
   <v>       0.16666654       0.33333352       0.45027586 </v>
   <v>       0.16666643       0.66666703       0.45027586 </v>
   <v>       0.49999994       0.00000000       0.45027586 </v>
   <v>       0.49999983       0.33333352       0.45027586 </v>
   <v>       0.49999972       0.66666703       0.45027586 </v>
   <v>       0.94444417       0.11111143       0.51911621 </v>
   <v>       0.94444444       0.44444418       0.51911621 </v>
   <v>       0.94444433       0.77777770       0.51911621 </v>
   <v>       0.27777758       0.11111143       0.51911621 </v>
   <v>       0.27777785       0.44444418       0.51911621 </v>
   <v>       0.27777774       0.77777770       0.51911621 </v>
   <v>       0.61111088       0.11111143       0.51911621 </v>
   <v>       0.61111115       0.44444418       0.51911621 </v>
   <v>       0.61111104       0.77777770       0.51911621 </v>
   <v>       0.44444488       0.27777742       0.10434517 </v>
   <v>       0.44444477       0.61111094       0.10434517 </v>
   <v>       0.44444466       0.94444445       0.10434517 </v>
   <v>       0.77777818       0.27777742       0.10434517 </v>
   <v>       0.77777807       0.61111094       0.10434517 </v>
   <v>       0.77777796       0.94444445       0.10434517 </v>
   <v>       0.11111159       0.27777742       0.10434517 </v>
   <v>       0.11111148       0.61111094       0.10434517 </v>
   <v>       0.11111137       0.94444445       0.10434517 </v>
   <v>       0.55555582       0.38888885       0.17318552 </v>
   <v>       0.55555571       0.72222236       0.17318552 </v>
   <v>       0.55555593       0.05555533       0.17318552 </v>
   <v>       0.88888911       0.38888885       0.17318552 </v>
   <v>       0.88888900       0.72222236       0.17318552 </v>
   <v>       0.88888922       0.05555533       0.17318552 </v>
   <v>       0.22222252       0.38888885       0.17318552 </v>
   <v>       0.22222241       0.72222236       0.17318552 </v>
   <v>       0.22222264       0.05555533       0.17318552 </v>
   <v>       0.66666675       0.50000027       0.24249897 </v>
   <v>       0.66666702       0.83333303       0.24249897 </v>
   <v>       0.66666686       0.16666676       0.24249897 </v>
   <v>       0.00000016       0.50000027       0.24249897 </v>
   <v>       0.00000043       0.83333303       0.24249897 </v>
   <v>       0.00000027       0.16666676       0.24249897 </v>
   <v>       0.33333346       0.50000027       0.24249897 </v>
   <v>       0.33333373       0.83333303       0.24249897 </v>
   <v>       0.33333357       0.16666676       0.24249897 </v>
   <v>       0.77777807       0.61111094       0.31173069 </v>
   <v>       0.77777796       0.94444445       0.31173069 </v>
   <v>       0.77777818       0.27777742       0.31173069 </v>
   <v>       0.11111148       0.61111094       0.31173069 </v>
   <v>       0.11111137       0.94444445       0.31173069 </v>
   <v>       0.11111159       0.27777742       0.31173069 </v>
   <v>       0.44444477       0.61111094       0.31173069 </v>
   <v>       0.44444466       0.94444445       0.31173069 </v>
   <v>       0.44444488       0.27777742       0.31173069 </v>
   <v>       0.88888900       0.72222236       0.38096241 </v>
   <v>       0.88888922       0.05555533       0.38096241 </v>
   <v>       0.88888911       0.38888885       0.38096241 </v>
   <v>       0.22222241       0.72222236       0.38096241 </v>
   <v>       0.22222264       0.05555533       0.38096241 </v>
   <v>       0.22222252       0.38888885       0.38096241 </v>
   <v>       0.55555571       0.72222236       0.38096241 </v>
   <v>       0.55555593       0.05555533       0.38096241 </v>
   <v>       0.55555582       0.38888885       0.38096241 </v>
   <v>       0.00000043       0.83333303       0.45027586 </v>
   <v>       0.00000027       0.16666676       0.45027586 </v>
   <v>       0.00000016       0.50000027       0.45027586 </v>
   <v>       0.33333373       0.83333303       0.45027586 </v>
   <v>       0.33333357       0.16666676       0.45027586 </v>
   <v>       0.33333346       0.50000027       0.45027586 </v>
   <v>       0.66666702       0.83333303       0.45027586 </v>
   <v>       0.66666686       0.16666676       0.45027586 </v>
   <v>       0.66666675       0.50000027       0.45027586 </v>
   <v>       0.11111137       0.94444445       0.51911621 </v>
   <v>       0.11111159       0.27777742       0.51911621 </v>
   <v>       0.11111148       0.61111094       0.51911621 </v>
   <v>       0.44444466       0.94444445       0.51911621 </v>
   <v>       0.44444488       0.27777742       0.51911621 </v>
   <v>       0.44444477       0.61111094       0.51911621 </v>
   <v>       0.77777796       0.94444445       0.51911621 </v>
   <v>       0.77777818       0.27777742       0.51911621 </v>
   <v>       0.77777807       0.61111094       0.51911621 </v>
   <v>       0.55561801       0.38880804       0.57068966 </v>
   <v>       0.49996510       0.50011387       0.57068966 </v>
  </varray>
 </structure>
 <calculation>
  <scstep>
   <time name="dav">   32.45   32.70</time>
   <time name="total">   33.08   33.36</time>
   <energy>
    <i name="alphaZ">  11989.56231627 </i>
    <i name="ewald">1657609.68980615 </i>
    <i name="hartreedc">**************** </i>
    <i name="XCdc">   2949.41696980 </i>
    <i name="pawpsdc"> 240645.55203634 </i>
    <i name="pawaedc">-260205.15184403 </i>
    <i name="eentropy">     -0.18094875 </i>
    <i name="bandstr">  18968.83052387 </i>
    <i name="atom"> 272423.81458302 </i>
    <i name="e_fr_energy">  22361.60617120 </i>
    <i name="e_wo_entrp">  22361.78711996 </i>
    <i name="e_0_energy">  22361.69664558 </i>
   </energy>
  </scstep>
  <scstep>
   <time name="dav">   32.29   32.53</time>
   <time name="total">   32.29   32.54</time>
   <energy>
    <i name="e_fr_energy">    100.63617831 </i>
    <i name="e_wo_entrp">    100.84580312 </i>
    <i name="e_0_energy">    100.74099072 </i>
   </energy>
  </scstep>
  <scstep>
   <time name="dav">   35.43   35.66</time>
   <time name="total">   35.44   35.67</time>
   <energy>
    <i name="e_fr_energy">  -1334.66229256 </i>
    <i name="e_wo_entrp">  -1333.83641336 </i>
    <i name="e_0_energy">  -1334.24935296 </i>
   </energy>
  </scstep>
  <scstep>
   <time name="dav">   54.06   54.39</time>
   <time name="total">   54.07   54.40</time>
   <energy>
    <i name="e_fr_energy">  -1559.51300661 </i>
    <i name="e_wo_entrp">  -1558.34179741 </i>
    <i name="e_0_energy">  -1558.92740201 </i>
   </energy>
  </scstep>
  <scstep>
   <time name="dav">   48.52   48.83</time>
   <time name="total">   50.26   50.59</time>
   <energy>
    <i name="e_fr_energy">  -1570.76105605 </i>
    <i name="e_wo_entrp">  -1569.57205686 </i>
    <i name="e_0_energy">  -1570.16655645 </i>
   </energy>
  </scstep>
  <scstep>
   <time name="dav">   41.08   41.37</time>
   <time name="total">   43.40   43.72</time>
   <energy>
    <i name="e_fr_energy">  -1969.69604768 </i>
    <i name="e_wo_entrp">  -1969.37789510 </i>
    <i name="e_0_energy">  -1969.53697139 </i>
   </energy>
  </scstep>
  <scstep>
   <time name="dav">   34.57   34.80</time>
   <time name="total">   36.87   37.13</time>
   <energy>
    <i name="e_fr_energy">  -1719.67969550 </i>
    <i name="e_wo_entrp">  -1719.00784886 </i>
    <i name="e_0_energy">  -1719.34377218 </i>
   </energy>
  </scstep>
  <scstep>
   <time name="dav">   40.36   40.72</time>
   <time name="total">   42.67   43.08</time>
   <energy>
    <i name="e_fr_energy">  -1604.91578604 </i>
    <i name="e_wo_entrp">  -1604.42770843 </i>
    <i name="e_0_energy">  -1604.67174723 </i>
   </energy>
  </scstep>
  <scstep>
   <time name="dav">   35.39   35.75</time>
   <time name="total">   37.71   38.11</time>
   <energy>
    <i name="e_fr_energy">  -2160.98213655 </i>
    <i name="e_wo_entrp">  -2160.43965187 </i>
    <i name="e_0_energy">  -2160.71089421 </i>
   </energy>
  </scstep>
  <scstep>
   <time name="dav">   40.58   40.96</time>
   <time name="total">   42.92   43.32</time>
   <energy>
    <i name="e_fr_energy">  -1548.54106238 </i>
    <i name="e_wo_entrp">  -1547.89159262 </i>
    <i name="e_0_energy">  -1548.21632750 </i>
   </energy>
  </scstep>
  <scstep>
   <time name="dav">   37.41   37.78</time>
   <time name="total">   39.76   40.16</time>
   <energy>
    <i name="e_fr_energy">  -1621.00157187 </i>
    <i name="e_wo_entrp">  -1620.48449638 </i>
    <i name="e_0_energy">  -1620.74303413 </i>
   </energy>
  </scstep>
  <scstep>
   <time name="dav">   35.03   35.34</time>
   <time name="total">   37.40   37.74</time>
   <energy>
    <i name="e_fr_energy">  -1582.11639210 </i>
    <i name="e_wo_entrp">  -1581.43136257 </i>
    <i name="e_0_energy">  -1581.77387733 </i>
   </energy>
  </scstep>
  <scstep>
   <time name="dav">   33.88   34.17</time>
   <time name="total">   36.24   36.56</time>
   <energy>
    <i name="e_fr_energy">  -1452.00356758 </i>
    <i name="e_wo_entrp">  -1451.39541007 </i>
    <i name="e_0_energy">  -1451.69948882 </i>
   </energy>
  </scstep>
  <scstep>
   <time name="dav">   34.25   34.58</time>
   <time name="total">   36.64   36.99</time>
   <energy>
    <i name="e_fr_energy">  -1535.16350593 </i>
    <i name="e_wo_entrp">  -1534.59688274 </i>
    <i name="e_0_energy">  -1534.88019433 </i>
   </energy>
  </scstep>
  <scstep>
   <time name="dav">   34.71   35.02</time>
   <time name="total">   37.09   37.43</time>
   <energy>
    <i name="e_fr_energy">  -1548.06256428 </i>
    <i name="e_wo_entrp">  -1547.63846236 </i>
    <i name="e_0_energy">  -1547.85051332 </i>
   </energy>
  </scstep>
  <scstep>
   <time name="dav">   33.49   33.84</time>
   <time name="total">   35.87   36.28</time>
   <energy>
    <i name="e_fr_energy">  -1494.01531860 </i>
    <i name="e_wo_entrp">  -1493.43483515 </i>
    <i name="e_0_energy">  -1493.72507687 </i>
   </energy>
  </scstep>
  <scstep>
   <time name="dav">   33.33   33.66</time>
   <time name="total">   35.73   36.09</time>
   <energy>
    <i name="e_fr_energy">  -1436.83608908 </i>
    <i name="e_wo_entrp">  -1436.19621315 </i>
    <i name="e_0_energy">  -1436.51615111 </i>
   </energy>
  </scstep>
  <scstep>
   <time name="dav">   33.56   33.90</time>
   <time name="total">   35.98   36.37</time>
   <energy>
    <i name="e_fr_energy">  -1386.73496840 </i>
    <i name="e_wo_entrp">  -1385.93925063 </i>
    <i name="e_0_energy">  -1386.33710951 </i>
   </energy>
  </scstep>
  <scstep>
   <time name="dav">   34.64   34.95</time>
   <time name="total">   37.07   37.42</time>
   <energy>
    <i name="e_fr_energy">  -1386.24794630 </i>
    <i name="e_wo_entrp">  -1385.61273998 </i>
    <i name="e_0_energy">  -1385.93034314 </i>
   </energy>
  </scstep>
  <scstep>
   <time name="dav">   33.81   34.13</time>
   <time name="total">   36.25   36.63</time>
   <energy>
    <i name="e_fr_energy">  -1366.93053799 </i>
    <i name="e_wo_entrp">  -1366.18569256 </i>
    <i name="e_0_energy">  -1366.55811528 </i>
   </energy>
  </scstep>
  <scstep>
   <time name="dav">   33.67   34.02</time>
   <time name="total">   36.13   36.51</time>
   <energy>
    <i name="e_fr_energy">  -1349.19668059 </i>
    <i name="e_wo_entrp">  -1348.23305969 </i>
    <i name="e_0_energy">  -1348.71487014 </i>
   </energy>
  </scstep>
  <scstep>
   <time name="dav">   34.03   34.35</time>
   <time name="total">   36.52   36.88</time>
   <energy>
    <i name="e_fr_energy">  -1341.28273991 </i>
    <i name="e_wo_entrp">  -1340.23320889 </i>
    <i name="e_0_energy">  -1340.75797440 </i>
   </energy>
  </scstep>
  <scstep>
   <time name="dav">   34.16   34.52</time>
   <time name="total">   36.64   37.05</time>
   <energy>
    <i name="e_fr_energy">  -1336.63659124 </i>
    <i name="e_wo_entrp">  -1335.45714213 </i>
    <i name="e_0_energy">  -1336.04686669 </i>
   </energy>
  </scstep>
  <scstep>
   <time name="dav">   34.23   34.61</time>
   <time name="total">   36.73   37.14</time>
   <energy>
    <i name="e_fr_energy">  -1335.28607448 </i>
    <i name="e_wo_entrp">  -1334.09102324 </i>
    <i name="e_0_energy">  -1334.68854886 </i>
   </energy>
  </scstep>
  <scstep>
   <time name="dav">   34.38   34.69</time>
   <time name="total">   36.89   37.25</time>
   <energy>
    <i name="e_fr_energy">  -1334.09098708 </i>
    <i name="e_wo_entrp">  -1332.83042098 </i>
    <i name="e_0_energy">  -1333.46070403 </i>
   </energy>
  </scstep>
  <scstep>
   <time name="dav">   34.36   34.70</time>
   <time name="total">   36.90   37.30</time>
   <energy>
    <i name="e_fr_energy">  -1332.64690375 </i>
    <i name="e_wo_entrp">  -1331.40132541 </i>
    <i name="e_0_energy">  -1332.02411458 </i>
   </energy>
  </scstep>
  <scstep>
   <time name="dav">   34.36   34.68</time>
   <time name="total">   36.89   37.27</time>
   <energy>
    <i name="e_fr_energy">  -1331.27408486 </i>
    <i name="e_wo_entrp">  -1329.98174926 </i>
    <i name="e_0_energy">  -1330.62791706 </i>
   </energy>
  </scstep>
  <scstep>
   <time name="dav">   34.44   34.78</time>
   <time name="total">   37.00   37.37</time>
   <energy>
    <i name="e_fr_energy">  -1329.78706089 </i>
    <i name="e_wo_entrp">  -1328.43739654 </i>
    <i name="e_0_energy">  -1329.11222871 </i>
   </energy>
  </scstep>
  <scstep>
   <time name="dav">   34.52   34.89</time>
   <time name="total">   37.11   37.53</time>
   <energy>
    <i name="e_fr_energy">  -1329.44567702 </i>
    <i name="e_wo_entrp">  -1328.07253269 </i>
    <i name="e_0_energy">  -1328.75910485 </i>
   </energy>
  </scstep>
  <scstep>
   <time name="dav">   34.51   34.83</time>
   <time name="total">   37.10   37.45</time>
   <energy>
    <i name="e_fr_energy">  -1330.54467532 </i>
    <i name="e_wo_entrp">  -1329.23477204 </i>
    <i name="e_0_energy">  -1329.88972368 </i>
   </energy>
  </scstep>
  <scstep>
   <time name="dav">   34.51   34.86</time>
   <time name="total">   37.13   37.51</time>
   <energy>
    <i name="e_fr_energy">  -1332.01212138 </i>
    <i name="e_wo_entrp">  -1330.73900841 </i>
    <i name="e_0_energy">  -1331.37556489 </i>
   </energy>
  </scstep>
  <scstep>
   <time name="dav">   34.55   34.89</time>
   <time name="total">   37.20   37.56</time>
   <energy>
    <i name="e_fr_energy">  -1332.99815084 </i>
    <i name="e_wo_entrp">  -1331.77225396 </i>
[...]
       <r>    -0.7865   666.0834  2267.1450 </r>
       <r>    -0.6820   810.4376  2351.8597 </r>
       <r>    -0.5774  1188.8894  2476.1337 </r>
       <r>    -0.4729  1134.3331  2594.7050 </r>
       <r>    -0.3684   529.2031  2650.0223 </r>
       <r>    -0.2638   170.1644  2667.8095 </r>
       <r>    -0.1593   121.5472  2680.5148 </r>
       <r>    -0.0548   172.1490  2698.5094 </r>
       <r>     0.0497   147.4182  2713.9190 </r>
       <r>     0.1543    56.9033  2719.8671 </r>
       <r>     0.2588    65.6113  2726.7254 </r>
       <r>     0.3633    23.9761  2729.2316 </r>
       <r>     0.4679   117.5007  2741.5139 </r>
       <r>     0.5724    84.8978  2750.3882 </r>
       <r>     0.6769    94.7956  2760.2971 </r>
       <r>     0.7815    85.0010  2769.1823 </r>
       <r>     0.8860   103.4142  2779.9921 </r>
       <r>     0.9905   148.5066  2795.5154 </r>
       <r>     1.0950    58.6178  2801.6427 </r>
       <r>     1.1996    20.4670  2803.7821 </r>
       <r>     1.3041   102.9528  2814.5437 </r>
       <r>     1.4086    77.7980  2822.6759 </r>
       <r>     1.5132    33.2587  2826.1524 </r>
       <r>     1.6177    87.2819  2835.2760 </r>
       <r>     1.7222    98.2603  2845.5471 </r>
       <r>     1.8267    82.1336  2854.1325 </r>
       <r>     1.9313    94.4072  2864.0008 </r>
       <r>     2.0358    71.4546  2871.4699 </r>
       <r>     2.1403    59.3962  2877.6786 </r>
       <r>     2.2449    81.2618  2886.1728 </r>
       <r>     2.3494   122.0159  2898.9271 </r>
       <r>     2.4539    48.3348  2903.9795 </r>
       <r>     2.5585    57.1365  2909.9520 </r>
       <r>     2.6630    53.9718  2915.5936 </r>
       <r>     2.7675    21.9447  2917.8875 </r>
       <r>     2.8720    43.6600  2922.4512 </r>
       <r>     2.9766    60.4282  2928.7677 </r>
       <r>     3.0811   191.1526  2948.7488 </r>
       <r>     3.1856   134.7594  2962.8352 </r>
       <r>     3.2902    23.3921  2965.2803 </r>
       <r>     3.3947    37.3984  2969.1896 </r>
       <r>     3.4992    90.6508  2978.6653 </r>
       <r>     3.6037    42.5547  2983.1135 </r>
       <r>     3.7083    64.8855  2989.8959 </r>
       <r>     3.8128    43.6940  2994.4632 </r>
       <r>     3.9173    11.1728  2995.6311 </r>
       <r>     4.0219    30.7291  2998.8432 </r>
       <r>     4.1264    33.1297  3002.3062 </r>
       <r>     4.2309    55.3359  3008.0905 </r>
       <r>     4.3355    35.7845  3011.8310 </r>
       <r>     4.4400    85.5368  3020.7721 </r>
       <r>     4.5445    67.5106  3027.8290 </r>
       <r>     4.6490    52.9347  3033.3622 </r>
       <r>     4.7536    43.6818  3037.9283 </r>
       <r>     4.8581     0.6862  3038.0000 </r>
       <r>     4.9626     0.0000  3038.0000 </r>
       <r>     5.0672     0.0000  3038.0000 </r>
       <r>     5.1717     0.0000  3038.0000 </r>
       <r>     5.2762     0.0000  3038.0000 </r>
       <r>     5.3808     0.0000  3038.0000 </r>
       <r>     5.4853     0.0000  3038.0000 </r>
       <r>     5.5898     0.0000  3038.0000 </r>
       <r>     5.6943     0.0000  3038.0000 </r>
       <r>     5.7989     0.0000  3038.0000 </r>
       <r>     5.9034     0.0000  3038.0000 </r>
       <r>     6.0079     0.0000  3038.0000 </r>
       <r>     6.1125     0.0000  3038.0000 </r>
      </set>
     </set>
    </array>
   </total>
  </dos>
 </calculation>
 <structure name="finalpos" >
  <crystal>
   <varray name="basis" >
    <v>       0.00000000     -15.14622176       0.00000000 </v>
    <v>       0.00000000      -7.57311088     -13.11701281 </v>
    <v>      29.00000000       0.00000000       0.00000000 </v>
   </varray>
   <i name="volume">   5761.52236213 </i>
   <varray name="rec_basis" >
    <v>       0.00000000      -0.06602307       0.03811843 </v>
    <v>       0.00000000       0.00000000      -0.07623687 </v>
    <v>       0.03448276       0.00000000       0.00000000 </v>
   </varray>
  </crystal>
  <varray name="positions" >
   <v>       0.44444450       0.44444418       0.10434517 </v>
   <v>       0.44444439       0.77777770       0.10434517 </v>
   <v>       0.44444423       0.11111143       0.10434517 </v>
   <v>       0.77777779       0.44444418       0.10434517 </v>
   <v>       0.77777768       0.77777770       0.10434517 </v>
   <v>       0.77777752       0.11111143       0.10434517 </v>
   <v>       0.11111120       0.44444418       0.10434517 </v>
   <v>       0.11111109       0.77777770       0.10434517 </v>
   <v>       0.11111093       0.11111143       0.10434517 </v>
   <v>       0.55555543       0.55555561       0.17318552 </v>
   <v>       0.55555532       0.88888912       0.17318552 </v>
   <v>       0.55555554       0.22222209       0.17318552 </v>
   <v>       0.88888873       0.55555561       0.17318552 </v>
   <v>       0.88888862       0.88888912       0.17318552 </v>
   <v>       0.88888884       0.22222209       0.17318552 </v>
   <v>       0.22222214       0.55555561       0.17318552 </v>
   <v>       0.22222203       0.88888912       0.17318552 </v>
   <v>       0.22222225       0.22222209       0.17318552 </v>
   <v>       0.66666637       0.66666703       0.24249897 </v>
   <v>       0.66666659       0.00000000       0.24249897 </v>
   <v>       0.66666648       0.33333352       0.24249897 </v>
   <v>       0.99999978       0.66666703       0.24249897 </v>
   <v>       0.00000000       0.00000000       0.24249897 </v>
   <v>       0.99999989       0.33333352       0.24249897 </v>
   <v>       0.33333307       0.66666703       0.24249897 </v>
   <v>       0.33333329       0.00000000       0.24249897 </v>
   <v>       0.33333318       0.33333352       0.24249897 </v>
   <v>       0.77777768       0.77777770       0.31173069 </v>
   <v>       0.77777752       0.11111143       0.31173069 </v>
   <v>       0.77777779       0.44444418       0.31173069 </v>
   <v>       0.11111109       0.77777770       0.31173069 </v>
   <v>       0.11111093       0.11111143       0.31173069 </v>
   <v>       0.11111120       0.44444418       0.31173069 </v>
   <v>       0.44444439       0.77777770       0.31173069 </v>
   <v>       0.44444423       0.11111143       0.31173069 </v>
   <v>       0.44444450       0.44444418       0.31173069 </v>
   <v>       0.88888862       0.88888912       0.38096241 </v>
   <v>       0.88888884       0.22222209       0.38096241 </v>
   <v>       0.88888873       0.55555561       0.38096241 </v>
   <v>       0.22222203       0.88888912       0.38096241 </v>
   <v>       0.22222225       0.22222209       0.38096241 </v>
   <v>       0.22222214       0.55555561       0.38096241 </v>
   <v>       0.55555532       0.88888912       0.38096241 </v>
   <v>       0.55555554       0.22222209       0.38096241 </v>
   <v>       0.55555543       0.55555561       0.38096241 </v>
   <v>       0.00000000       0.00000000       0.45027586 </v>
   <v>       0.99999989       0.33333352       0.45027586 </v>
   <v>       0.99999978       0.66666703       0.45027586 </v>
   <v>       0.33333329       0.00000000       0.45027586 </v>
   <v>       0.33333318       0.33333352       0.45027586 </v>
   <v>       0.33333307       0.66666703       0.45027586 </v>
   <v>       0.66666659       0.00000000       0.45027586 </v>
   <v>       0.66666648       0.33333352       0.45027586 </v>
   <v>       0.66666637       0.66666703       0.45027586 </v>
   <v>       0.11111093       0.11111143       0.51911621 </v>
   <v>       0.11111120       0.44444418       0.51911621 </v>
   <v>       0.11111109       0.77777770       0.51911621 </v>
   <v>       0.44444423       0.11111143       0.51911621 </v>
   <v>       0.44444450       0.44444418       0.51911621 </v>
   <v>       0.44444439       0.77777770       0.51911621 </v>
   <v>       0.77777752       0.11111143       0.51911621 </v>
   <v>       0.77777779       0.44444418       0.51911621 </v>
   <v>       0.77777768       0.77777770       0.51911621 </v>
   <v>       0.27777824       0.27777742       0.10434517 </v>
   <v>       0.27777813       0.61111094       0.10434517 </v>
   <v>       0.27777802       0.94444445       0.10434517 </v>
   <v>       0.61111153       0.27777742       0.10434517 </v>
   <v>       0.61111142       0.61111094       0.10434517 </v>
   <v>       0.61111131       0.94444445       0.10434517 </v>
   <v>       0.94444483       0.27777742       0.10434517 </v>
   <v>       0.94444472       0.61111094       0.10434517 </v>
   <v>       0.94444461       0.94444445       0.10434517 </v>
   <v>       0.38888917       0.38888885       0.17318552 </v>
   <v>       0.38888906       0.72222236       0.17318552 </v>
   <v>       0.38888928       0.05555533       0.17318552 </v>
   <v>       0.72222247       0.38888885       0.17318552 </v>
   <v>       0.72222236       0.72222236       0.17318552 </v>
   <v>       0.72222258       0.05555533       0.17318552 </v>
   <v>       0.05555588       0.38888885       0.17318552 </v>
   <v>       0.05555577       0.72222236       0.17318552 </v>
   <v>       0.05555599       0.05555533       0.17318552 </v>
   <v>       0.50000011       0.50000027       0.24249897 </v>
   <v>       0.50000038       0.83333303       0.24249897 </v>
   <v>       0.50000022       0.16666676       0.24249897 </v>
   <v>       0.83333340       0.50000027       0.24249897 </v>
   <v>       0.83333367       0.83333303       0.24249897 </v>
   <v>       0.83333351       0.16666676       0.24249897 </v>
   <v>       0.16666681       0.50000027       0.24249897 </v>
   <v>       0.16666708       0.83333303       0.24249897 </v>
   <v>       0.16666692       0.16666676       0.24249897 </v>
   <v>       0.61111142       0.61111094       0.31173069 </v>
   <v>       0.61111131       0.94444445       0.31173069 </v>
   <v>       0.61111153       0.27777742       0.31173069 </v>
   <v>       0.94444472       0.61111094       0.31173069 </v>
   <v>       0.94444461       0.94444445       0.31173069 </v>
   <v>       0.94444483       0.27777742       0.31173069 </v>
   <v>       0.27777813       0.61111094       0.31173069 </v>
   <v>       0.27777802       0.94444445       0.31173069 </v>
   <v>       0.27777824       0.27777742       0.31173069 </v>
   <v>       0.72222236       0.72222236       0.38096241 </v>
   <v>       0.72222258       0.05555533       0.38096241 </v>
   <v>       0.72222247       0.38888885       0.38096241 </v>
   <v>       0.05555577       0.72222236       0.38096241 </v>
   <v>       0.05555599       0.05555533       0.38096241 </v>
   <v>       0.05555588       0.38888885       0.38096241 </v>
   <v>       0.38888906       0.72222236       0.38096241 </v>
   <v>       0.38888928       0.05555533       0.38096241 </v>
   <v>       0.38888917       0.38888885       0.38096241 </v>
   <v>       0.83333367       0.83333303       0.45027586 </v>
   <v>       0.83333351       0.16666676       0.45027586 </v>
   <v>       0.83333340       0.50000027       0.45027586 </v>
   <v>       0.16666708       0.83333303       0.45027586 </v>
   <v>       0.16666692       0.16666676       0.45027586 </v>
   <v>       0.16666681       0.50000027       0.45027586 </v>
   <v>       0.50000038       0.83333303       0.45027586 </v>
   <v>       0.50000022       0.16666676       0.45027586 </v>
   <v>       0.50000011       0.50000027       0.45027586 </v>
   <v>       0.94444461       0.94444445       0.51911621 </v>
   <v>       0.94444483       0.27777742       0.51911621 </v>
   <v>       0.94444472       0.61111094       0.51911621 </v>
   <v>       0.27777802       0.94444445       0.51911621 </v>
   <v>       0.27777824       0.27777742       0.51911621 </v>
   <v>       0.27777813       0.61111094       0.51911621 </v>
   <v>       0.61111131       0.94444445       0.51911621 </v>
   <v>       0.61111153       0.27777742       0.51911621 </v>
   <v>       0.61111142       0.61111094       0.51911621 </v>
   <v>       0.27777785       0.44444418       0.10434517 </v>
   <v>       0.27777774       0.77777770       0.10434517 </v>
   <v>       0.27777758       0.11111143       0.10434517 </v>
   <v>       0.61111115       0.44444418       0.10434517 </v>
   <v>       0.61111104       0.77777770       0.10434517 </v>
   <v>       0.61111088       0.11111143       0.10434517 </v>
   <v>       0.94444444       0.44444418       0.10434517 </v>
   <v>       0.94444433       0.77777770       0.10434517 </v>
   <v>       0.94444417       0.11111143       0.10434517 </v>
   <v>       0.38888879       0.55555561       0.17318552 </v>
   <v>       0.38888868       0.88888912       0.17318552 </v>
   <v>       0.38888890       0.22222209       0.17318552 </v>
   <v>       0.72222208       0.55555561       0.17318552 </v>
   <v>       0.72222197       0.88888912       0.17318552 </v>
   <v>       0.72222219       0.22222209       0.17318552 </v>
   <v>       0.05555549       0.55555561       0.17318552 </v>
   <v>       0.05555538       0.88888912       0.17318552 </v>
   <v>       0.05555560       0.22222209       0.17318552 </v>
   <v>       0.49999972       0.66666703       0.24249897 </v>
   <v>       0.49999994       0.00000000       0.24249897 </v>
   <v>       0.49999983       0.33333352       0.24249897 </v>
   <v>       0.83333302       0.66666703       0.24249897 </v>
   <v>       0.83333324       0.00000000       0.24249897 </v>
   <v>       0.83333313       0.33333352       0.24249897 </v>
   <v>       0.16666643       0.66666703       0.24249897 </v>
   <v>       0.16666665       0.00000000       0.24249897 </v>
   <v>       0.16666654       0.33333352       0.24249897 </v>
   <v>       0.61111104       0.77777770       0.31173069 </v>
   <v>       0.61111088       0.11111143       0.31173069 </v>
   <v>       0.61111115       0.44444418       0.31173069 </v>
   <v>       0.94444433       0.77777770       0.31173069 </v>
   <v>       0.94444417       0.11111143       0.31173069 </v>
   <v>       0.94444444       0.44444418       0.31173069 </v>
   <v>       0.27777774       0.77777770       0.31173069 </v>
   <v>       0.27777758       0.11111143       0.31173069 </v>
   <v>       0.27777785       0.44444418       0.31173069 </v>
   <v>       0.72222197       0.88888912       0.38096241 </v>
   <v>       0.72222219       0.22222209       0.38096241 </v>
   <v>       0.72222208       0.55555561       0.38096241 </v>
   <v>       0.05555538       0.88888912       0.38096241 </v>
   <v>       0.05555560       0.22222209       0.38096241 </v>
   <v>       0.05555549       0.55555561       0.38096241 </v>
   <v>       0.38888868       0.88888912       0.38096241 </v>
   <v>       0.38888890       0.22222209       0.38096241 </v>
   <v>       0.38888879       0.55555561       0.38096241 </v>
   <v>       0.83333324       0.00000000       0.45027586 </v>
   <v>       0.83333313       0.33333352       0.45027586 </v>
   <v>       0.83333302       0.66666703       0.45027586 </v>
   <v>       0.16666665       0.00000000       0.45027586 </v>
   <v>       0.16666654       0.33333352       0.45027586 </v>
   <v>       0.16666643       0.66666703       0.45027586 </v>
   <v>       0.49999994       0.00000000       0.45027586 </v>
   <v>       0.49999983       0.33333352       0.45027586 </v>
   <v>       0.49999972       0.66666703       0.45027586 </v>
   <v>       0.94444417       0.11111143       0.51911621 </v>
   <v>       0.94444444       0.44444418       0.51911621 </v>
   <v>       0.94444433       0.77777770       0.51911621 </v>
   <v>       0.27777758       0.11111143       0.51911621 </v>
   <v>       0.27777785       0.44444418       0.51911621 </v>
   <v>       0.27777774       0.77777770       0.51911621 </v>
   <v>       0.61111088       0.11111143       0.51911621 </v>
   <v>       0.61111115       0.44444418       0.51911621 </v>
   <v>       0.61111104       0.77777770       0.51911621 </v>
   <v>       0.44444488       0.27777742       0.10434517 </v>
   <v>       0.44444477       0.61111094       0.10434517 </v>
   <v>       0.44444466       0.94444445       0.10434517 </v>
   <v>       0.77777818       0.27777742       0.10434517 </v>
   <v>       0.77777807       0.61111094       0.10434517 </v>
   <v>       0.77777796       0.94444445       0.10434517 </v>
   <v>       0.11111159       0.27777742       0.10434517 </v>
   <v>       0.11111148       0.61111094       0.10434517 </v>
   <v>       0.11111137       0.94444445       0.10434517 </v>
   <v>       0.55555582       0.38888885       0.17318552 </v>
   <v>       0.55555571       0.72222236       0.17318552 </v>
   <v>       0.55555593       0.05555533       0.17318552 </v>
   <v>       0.88888911       0.38888885       0.17318552 </v>
   <v>       0.88888900       0.72222236       0.17318552 </v>
   <v>       0.88888922       0.05555533       0.17318552 </v>
   <v>       0.22222252       0.38888885       0.17318552 </v>
   <v>       0.22222241       0.72222236       0.17318552 </v>
   <v>       0.22222264       0.05555533       0.17318552 </v>
   <v>       0.66666675       0.50000027       0.24249897 </v>
   <v>       0.66666702       0.83333303       0.24249897 </v>
   <v>       0.66666686       0.16666676       0.24249897 </v>
   <v>       0.00000016       0.50000027       0.24249897 </v>
   <v>       0.00000043       0.83333303       0.24249897 </v>
   <v>       0.00000027       0.16666676       0.24249897 </v>
   <v>       0.33333346       0.50000027       0.24249897 </v>
   <v>       0.33333373       0.83333303       0.24249897 </v>
   <v>       0.33333357       0.16666676       0.24249897 </v>
   <v>       0.77777807       0.61111094       0.31173069 </v>
   <v>       0.77777796       0.94444445       0.31173069 </v>
   <v>       0.77777818       0.27777742       0.31173069 </v>
   <v>       0.11111148       0.61111094       0.31173069 </v>
   <v>       0.11111137       0.94444445       0.31173069 </v>
   <v>       0.11111159       0.27777742       0.31173069 </v>
   <v>       0.44444477       0.61111094       0.31173069 </v>
   <v>       0.44444466       0.94444445       0.31173069 </v>
   <v>       0.44444488       0.27777742       0.31173069 </v>
   <v>       0.88888900       0.72222236       0.38096241 </v>
   <v>       0.88888922       0.05555533       0.38096241 </v>
   <v>       0.88888911       0.38888885       0.38096241 </v>
   <v>       0.22222241       0.72222236       0.38096241 </v>
   <v>       0.22222264       0.05555533       0.38096241 </v>
   <v>       0.22222252       0.38888885       0.38096241 </v>
   <v>       0.55555571       0.72222236       0.38096241 </v>
   <v>       0.55555593       0.05555533       0.38096241 </v>
   <v>       0.55555582       0.38888885       0.38096241 </v>
   <v>       0.00000043       0.83333303       0.45027586 </v>
   <v>       0.00000027       0.16666676       0.45027586 </v>
   <v>       0.00000016       0.50000027       0.45027586 </v>
   <v>       0.33333373       0.83333303       0.45027586 </v>
   <v>       0.33333357       0.16666676       0.45027586 </v>
   <v>       0.33333346       0.50000027       0.45027586 </v>
   <v>       0.66666702       0.83333303       0.45027586 </v>
   <v>       0.66666686       0.16666676       0.45027586 </v>
   <v>       0.66666675       0.50000027       0.45027586 </v>
   <v>       0.11111137       0.94444445       0.51911621 </v>
   <v>       0.11111159       0.27777742       0.51911621 </v>
   <v>       0.11111148       0.61111094       0.51911621 </v>
   <v>       0.44444466       0.94444445       0.51911621 </v>
   <v>       0.44444488       0.27777742       0.51911621 </v>
   <v>       0.44444477       0.61111094       0.51911621 </v>
   <v>       0.77777796       0.94444445       0.51911621 </v>
   <v>       0.77777818       0.27777742       0.51911621 </v>
   <v>       0.77777807       0.61111094       0.51911621 </v>
   <v>       0.55561801       0.38880804       0.57068966 </v>
   <v>       0.49996510       0.50011387       0.57068966 </v>
  </varray>
 </structure>
</modeling>
