 254 254   0   0
  0.2268316E+02  0.1514622E-08  0.1514622E-08  0.2900000E-08  0.5000000E-15
   1.0000000000000000E-004
  CAR 
 NiAl                                    
      6.19756452    -27.33005197  301     -0.54338329      1.00000000
    -27.330  0.0000E+00  0.0000E+00
    -27.218  0.0000E+00  0.0000E+00
    -27.107  0.0000E+00  0.0000E+00
    -26.995  0.0000E+00  0.0000E+00
    -26.883  0.0000E+00  0.0000E+00
    -26.771  0.0000E+00  0.0000E+00
    -26.659  0.0000E+00  0.0000E+00
    -26.548  0.0000E+00  0.0000E+00
    -26.436  0.0000E+00  0.0000E+00
    -26.324  0.0000E+00  0.0000E+00
    -26.212  0.0000E+00  0.0000E+00
    -26.101  0.9934E-15  0.1110E-15
    -25.989  0.1998E-05  0.2233E-06
    -25.877  0.3902E+00  0.4361E-01
    -25.765  0.1524E+02  0.1747E+01
    -25.654  0.2264E+01  0.2000E+01
    -25.542  0.1500E-03  0.2000E+01
    -25.430  0.7451E-12  0.2000E+01
    -25.318  0.0000E+00  0.2000E+01
    -25.207  0.0000E+00  0.2000E+01
    -25.095  0.0000E+00  0.2000E+01
    -24.983  0.0000E+00  0.2000E+01
    -24.871  0.0000E+00  0.2000E+01
    -24.760  0.0000E+00  0.2000E+01
    -24.648  0.0000E+00  0.2000E+01
    -24.536  0.0000E+00  0.2000E+01
    -24.424  0.0000E+00  0.2000E+01
    -24.313  0.0000E+00  0.2000E+01
    -24.201  0.0000E+00  0.2000E+01
    -24.089  0.0000E+00  0.2000E+01
    -23.977  0.0000E+00  0.2000E+01
    -23.866  0.0000E+00  0.2000E+01
    -23.754  0.0000E+00  0.2000E+01
    -23.642  0.0000E+00  0.2000E+01
    -23.530  0.0000E+00  0.2000E+01
    -23.418  0.0000E+00  0.2000E+01
    -23.307  0.0000E+00  0.2000E+01
    -23.195  0.0000E+00  0.2000E+01
    -23.083  0.0000E+00  0.2000E+01
    -22.971  0.0000E+00  0.2000E+01
    -22.860  0.0000E+00  0.2000E+01
    -22.748  0.0000E+00  0.2000E+01
    -22.636  0.0000E+00  0.2000E+01
    -22.524  0.0000E+00  0.2000E+01
    -22.413  0.0000E+00  0.2000E+01
    -22.301  0.0000E+00  0.2000E+01
    -22.189  0.0000E+00  0.2000E+01
    -22.077  0.0000E+00  0.2000E+01
    -21.966  0.0000E+00  0.2000E+01
    -21.854  0.0000E+00  0.2000E+01
    -21.742  0.0000E+00  0.2000E+01
    -21.630  0.0000E+00  0.2000E+01
    -21.519  0.0000E+00  0.2000E+01
    -21.407  0.0000E+00  0.2000E+01
    -21.295  0.0000E+00  0.2000E+01
    -21.183  0.0000E+00  0.2000E+01
    -21.072  0.0000E+00  0.2000E+01
    -20.960  0.0000E+00  0.2000E+01
    -20.848  0.0000E+00  0.2000E+01
    -20.736  0.0000E+00  0.2000E+01
    -20.625  0.0000E+00  0.2000E+01
    -20.513  0.0000E+00  0.2000E+01
    -20.401  0.0000E+00  0.2000E+01
    -20.289  0.0000E+00  0.2000E+01
    -20.177  0.0000E+00  0.2000E+01
    -20.066  0.0000E+00  0.2000E+01
    -19.954  0.0000E+00  0.2000E+01
    -19.842  0.0000E+00  0.2000E+01
    -19.730  0.0000E+00  0.2000E+01
    -19.619  0.0000E+00  0.2000E+01
    -19.507  0.0000E+00  0.2000E+01
    -19.395  0.0000E+00  0.2000E+01
    -19.283  0.0000E+00  0.2000E+01
    -19.172  0.0000E+00  0.2000E+01
    -19.060  0.0000E+00  0.2000E+01
    -18.948  0.0000E+00  0.2000E+01
    -18.836  0.0000E+00  0.2000E+01
    -18.725  0.0000E+00  0.2000E+01
    -18.613  0.0000E+00  0.2000E+01
    -18.501  0.0000E+00  0.2000E+01
    -18.389  0.0000E+00  0.2000E+01
    -18.278  0.0000E+00  0.2000E+01
    -18.166  0.0000E+00  0.2000E+01
    -18.054  0.0000E+00  0.2000E+01
    -17.942  0.0000E+00  0.2000E+01
    -17.831  0.0000E+00  0.2000E+01
    -17.719  0.0000E+00  0.2000E+01
    -17.607  0.0000E+00  0.2000E+01
    -17.495  0.0000E+00  0.2000E+01
    -17.384  0.0000E+00  0.2000E+01
    -17.272  0.0000E+00  0.2000E+01
    -17.160  0.0000E+00  0.2000E+01
    -17.048  0.0000E+00  0.2000E+01
    -16.936  0.0000E+00  0.2000E+01
    -16.825  0.0000E+00  0.2000E+01
    -16.713  0.0000E+00  0.2000E+01
    -16.601  0.0000E+00  0.2000E+01
    -16.489  0.0000E+00  0.2000E+01
    -16.378  0.0000E+00  0.2000E+01
    -16.266  0.0000E+00  0.2000E+01
    -16.154  0.0000E+00  0.2000E+01
    -16.042  0.0000E+00  0.2000E+01
    -15.931  0.0000E+00  0.2000E+01
    -15.819  0.0000E+00  0.2000E+01
    -15.707  0.0000E+00  0.2000E+01
    -15.595  0.0000E+00  0.2000E+01
    -15.484  0.0000E+00  0.2000E+01
    -15.372  0.2902E-10  0.2000E+01
    -15.260  0.1265E-02  0.2000E+01
    -15.148  0.4644E+01  0.2519E+01
    -15.037  0.1314E+02  0.3988E+01
    -14.925  0.1061E+00  0.4000E+01
    -14.813  0.1224E-06  0.4000E+01
    -14.701  0.0000E+00  0.4000E+01
    -14.590  0.0000E+00  0.4000E+01
    -14.478  0.0000E+00  0.4000E+01
    -14.366  0.0000E+00  0.4000E+01
    -14.254  0.0000E+00  0.4000E+01
    -14.143  0.0000E+00  0.4000E+01
    -14.031  0.0000E+00  0.4000E+01
    -13.919  0.0000E+00  0.4000E+01
    -13.807  0.0000E+00  0.4000E+01
    -13.695  0.0000E+00  0.4000E+01
    -13.584  0.0000E+00  0.4000E+01
    -13.472  0.0000E+00  0.4000E+01
    -13.360  0.0000E+00  0.4000E+01
    -13.248  0.0000E+00  0.4000E+01
    -13.137  0.0000E+00  0.4000E+01
    -13.025  0.0000E+00  0.4000E+01
    -12.913  0.0000E+00  0.4000E+01
    -12.801  0.0000E+00  0.4000E+01
    -12.690  0.0000E+00  0.4000E+01
    -12.578  0.0000E+00  0.4000E+01
    -12.466  0.0000E+00  0.4000E+01
    -12.354  0.0000E+00  0.4000E+01
    -12.243  0.0000E+00  0.4000E+01
    -12.131  0.0000E+00  0.4000E+01
    -12.019  0.0000E+00  0.4000E+01
    -11.907  0.0000E+00  0.4000E+01
    -11.796  0.0000E+00  0.4000E+01
    -11.684  0.0000E+00  0.4000E+01
    -11.572  0.0000E+00  0.4000E+01
    -11.460  0.0000E+00  0.4000E+01
    -11.349  0.0000E+00  0.4000E+01
    -11.237  0.0000E+00  0.4000E+01
    -11.125  0.0000E+00  0.4000E+01
    -11.013  0.0000E+00  0.4000E+01
    -10.902  0.0000E+00  0.4000E+01
    -10.790  0.0000E+00  0.4000E+01
    -10.678  0.0000E+00  0.4000E+01
    -10.566  0.0000E+00  0.4000E+01
    -10.454  0.0000E+00  0.4000E+01
    -10.343  0.0000E+00  0.4000E+01
    -10.231  0.0000E+00  0.4000E+01
    -10.119  0.0000E+00  0.4000E+01
    -10.007  0.0000E+00  0.4000E+01
     -9.896  0.0000E+00  0.4000E+01
     -9.784  0.0000E+00  0.4000E+01
     -9.672  0.0000E+00  0.4000E+01
     -9.560  0.0000E+00  0.4000E+01
     -9.449  0.0000E+00  0.4000E+01
     -9.337  0.1194E-09  0.4000E+01
     -9.225  0.1506E-02  0.4000E+01
     -9.113  0.1813E+01  0.4203E+01
     -9.002  0.2656E+01  0.4500E+01
     -8.890  0.8698E+01  0.5472E+01
     -8.778  0.1806E+02  0.7489E+01
     -8.666  0.1905E+00  0.7511E+01
     -8.555  0.3828E+01  0.7939E+01
     -8.443  0.1269E+02  0.9357E+01
     -8.331  0.3776E+02  0.1358E+02
     -8.219  0.1671E+02  0.1544E+02
     -8.108  0.3091E+02  0.1890E+02
     -7.996  0.9784E+00  0.1901E+02
     -7.884  0.1548E+02  0.2074E+02
     -7.772  0.1206E+02  0.2209E+02
     -7.661  0.2286E+02  0.2464E+02
     -7.549  0.4026E+02  0.2914E+02
     -7.437  0.4748E+02  0.3445E+02
     -7.325  0.1209E+02  0.3580E+02
     -7.213  0.7410E+01  0.3663E+02
     -7.102  0.4881E+02  0.4208E+02
     -6.990  0.6884E+02  0.4977E+02
     -6.878  0.2253E+02  0.5229E+02
     -6.766  0.1115E+02  0.5354E+02
     -6.655  0.2553E+02  0.5639E+02
     -6.543  0.2451E+02  0.5913E+02
     -6.431  0.3977E+02  0.6358E+02
     -6.319  0.7408E+02  0.7186E+02
     -6.208  0.2852E+02  0.7504E+02
     -6.096  0.3684E+02  0.7916E+02
     -5.984  0.6349E+02  0.8626E+02
     -5.872  0.8193E+02  0.9541E+02
     -5.761  0.5297E+01  0.9600E+02
     -5.649  0.4600E+01  0.9652E+02
     -5.537  0.3053E+02  0.9993E+02
     -5.425  0.9570E+02  0.1106E+03
     -5.314  0.1160E+03  0.1236E+03
     -5.202  0.5434E+02  0.1297E+03
     -5.090  0.1078E+03  0.1417E+03
     -4.978  0.1036E+03  0.1533E+03
     -4.867  0.4422E+02  0.1582E+03
     -4.755  0.1206E+03  0.1717E+03
     -4.643  0.2510E+03  0.1998E+03
     -4.531  0.1741E+03  0.2192E+03
     -4.420  0.2321E+03  0.2452E+03
     -4.308  0.3003E+03  0.2787E+03
     -4.196  0.2256E+03  0.3039E+03
     -4.084  0.2537E+03  0.3323E+03
     -3.972  0.3183E+03  0.3679E+03
     -3.861  0.4208E+03  0.4149E+03
     -3.749  0.5226E+03  0.4733E+03
     -3.637  0.4109E+03  0.5192E+03
     -3.525  0.4758E+03  0.5724E+03
     -3.414  0.3751E+03  0.6143E+03
     -3.302  0.3356E+03  0.6518E+03
     -3.190  0.4026E+03  0.6968E+03
     -3.078  0.5200E+03  0.7549E+03
     -2.967  0.3790E+03  0.7973E+03
     -2.855  0.5165E+03  0.8550E+03
     -2.743  0.5569E+03  0.9172E+03
     -2.631  0.5114E+03  0.9744E+03
     -2.520  0.5407E+03  0.1035E+04
     -2.408  0.6816E+03  0.1111E+04
     -2.296  0.7406E+03  0.1194E+04
     -2.184  0.9221E+03  0.1297E+04
     -2.073  0.7822E+03  0.1384E+04
     -1.961  0.9318E+03  0.1488E+04
     -1.849  0.7046E+03  0.1567E+04
     -1.737  0.5882E+03  0.1633E+04
     -1.626  0.5558E+03  0.1695E+04
     -1.514  0.5226E+03  0.1753E+04
     -1.402  0.7141E+03  0.1833E+04
     -1.290  0.7999E+03  0.1923E+04
     -1.179  0.5279E+03  0.1982E+04
     -1.067  0.6933E+03  0.2059E+04
     -0.955  0.7656E+03  0.2145E+04
     -0.843  0.8348E+03  0.2238E+04
     -0.731  0.6768E+03  0.2314E+04
     -0.620  0.1058E+04  0.2432E+04
     -0.508  0.1244E+04  0.2571E+04
     -0.396  0.6549E+03  0.2644E+04
     -0.284  0.2049E+03  0.2667E+04
     -0.173  0.1224E+03  0.2681E+04
     -0.061  0.1700E+03  0.2700E+04
      0.051  0.1494E+03  0.2716E+04
      0.163  0.4160E+02  0.2721E+04
      0.274  0.6426E+02  0.2728E+04
      0.386  0.2836E+02  0.2731E+04
      0.498  0.1299E+03  0.2746E+04
      0.610  0.8799E+02  0.2756E+04
      0.721  0.8846E+02  0.2765E+04
      0.833  0.8241E+02  0.2775E+04
      0.945  0.1403E+03  0.2790E+04
      1.057  0.9976E+02  0.2801E+04
      1.168  0.1433E+02  0.2803E+04
      1.280  0.8501E+02  0.2813E+04
      1.392  0.9196E+02  0.2823E+04
      1.504  0.2947E+02  0.2826E+04
      1.615  0.9228E+02  0.2836E+04
      1.727  0.9957E+02  0.2848E+04
      1.839  0.7273E+02  0.2856E+04
      1.951  0.9881E+02  0.2867E+04
      2.062  0.6302E+02  0.2874E+04
      2.174  0.5685E+02  0.2880E+04
      2.286  0.1071E+03  0.2892E+04
      2.398  0.1034E+03  0.2904E+04
      2.510  0.3382E+02  0.2907E+04
      2.621  0.6282E+02  0.2915E+04
      2.733  0.2516E+02  0.2917E+04
      2.845  0.2330E+02  0.2920E+04
      2.957  0.6013E+02  0.2927E+04
      3.068  0.1938E+03  0.2948E+04
      3.180  0.1297E+03  0.2963E+04
      3.292  0.2974E+02  0.2966E+04
      3.404  0.2408E+02  0.2969E+04
      3.515  0.1095E+03  0.2981E+04
      3.627  0.2517E+02  0.2984E+04
      3.739  0.7763E+02  0.2993E+04
      3.851  0.2582E+02  0.2995E+04
      3.962  0.2025E+02  0.2998E+04
      4.074  0.1038E+02  0.2999E+04
      4.186  0.6159E+02  0.3006E+04
      4.298  0.2975E+02  0.3009E+04
      4.409  0.7319E+02  0.3017E+04
      4.521  0.7937E+02  0.3026E+04
      4.633  0.5823E+02  0.3033E+04
      4.745  0.4779E+02  0.3038E+04
      4.856  0.4451E+00  0.3038E+04
      4.968  0.1780E-05  0.3038E+04
      5.080  0.0000E+00  0.3038E+04
      5.192  0.0000E+00  0.3038E+04
      5.303  0.0000E+00  0.3038E+04
      5.415  0.0000E+00  0.3038E+04
      5.527  0.0000E+00  0.3038E+04
      5.639  0.0000E+00  0.3038E+04
      5.751  0.0000E+00  0.3038E+04
      5.862  0.0000E+00  0.3038E+04
      5.974  0.0000E+00  0.3038E+04
      6.086  0.0000E+00  0.3038E+04
      6.198  0.0000E+00  0.3038E+04
