       N       E                     dE             d eps       ncg     rms          rms(c)
DAV:   1     0.223977272900E+05    0.22398E+05   -0.98595E+05 12200   0.134E+03
DAV:   2     0.113535746346E+03   -0.22284E+05   -0.21289E+05 12152   0.469E+02
DAV:   3    -0.133241383948E+04   -0.14459E+04   -0.12195E+04 13720   0.131E+02
DAV:   4    -0.155662136532E+04   -0.22421E+03   -0.19164E+03 21800   0.491E+01
DAV:   5    -0.156747631015E+04   -0.10855E+02   -0.10285E+02 19952   0.117E+01    0.147E+02
DAV:   6    -0.198190927711E+04   -0.41443E+03   -0.26855E+03 16392   0.179E+02    0.310E+02
DAV:   7    -0.167863817752E+04    0.30327E+03   -0.98919E+02 13040   0.132E+02    0.229E+02
DAV:   8    -0.160224599228E+04    0.76392E+02   -0.75449E+02 16016   0.123E+02    0.209E+02
DAV:   9    -0.234489995837E+04   -0.74265E+03   -0.29938E+02 13568   0.176E+02    0.323E+02
DAV:  10    -0.158734210930E+04    0.75756E+03   -0.35163E+02 16464   0.848E+01    0.159E+02
DAV:  11    -0.153907952781E+04    0.48263E+02   -0.34347E+02 15288   0.124E+02    0.174E+02
DAV:  12    -0.144073855853E+04    0.98341E+02   -0.20120E+02 12880   0.686E+01    0.154E+02
DAV:  13    -0.151895702863E+04   -0.78218E+02   -0.14752E+02 13072   0.584E+01    0.182E+02
DAV:  14    -0.144119336036E+04    0.77764E+02   -0.82360E+01 12880   0.516E+01    0.148E+02
DAV:  15    -0.142392522224E+04    0.17268E+02   -0.62422E+01 13016   0.523E+01    0.140E+02
DAV:  16    -0.142483567305E+04   -0.91045E+00   -0.60897E+01 12896   0.528E+01    0.154E+02
DAV:  17    -0.136208001487E+04    0.62756E+02   -0.41935E+01 12768   0.381E+01    0.868E+01
DAV:  18    -0.135277257755E+04    0.93074E+01   -0.24549E+01 13016   0.285E+01    0.837E+01
DAV:  19    -0.134889325811E+04    0.38793E+01   -0.20353E+01 12976   0.284E+01    0.818E+01
DAV:  20    -0.134019028007E+04    0.87030E+01   -0.14849E+01 12976   0.224E+01    0.687E+01
DAV:  21    -0.133869221149E+04    0.14981E+01   -0.11049E+01 12976   0.209E+01    0.661E+01
DAV:  22    -0.133355173107E+04    0.51405E+01   -0.72138E+00 12976   0.169E+01    0.549E+01
DAV:  23    -0.133166862998E+04    0.18831E+01   -0.54744E+00 13104   0.156E+01    0.505E+01
DAV:  24    -0.132942927359E+04    0.22394E+01   -0.44774E+00 13040   0.134E+01    0.405E+01
DAV:  25    -0.133175898191E+04   -0.23297E+01   -0.37376E+00 13200   0.132E+01    0.523E+01
DAV:  26    -0.132831781051E+04    0.34412E+01   -0.31725E+00 13192   0.101E+01    0.373E+01
DAV:  27    -0.132748525864E+04    0.83255E+00   -0.23714E+00 13296   0.951E+00    0.370E+01
DAV:  28    -0.132759138773E+04   -0.10613E+00   -0.22597E+00 13312   0.932E+00    0.398E+01
DAV:  29    -0.132697112421E+04    0.62026E+00   -0.20955E+00 13304   0.859E+00    0.351E+01
DAV:  30    -0.132848588152E+04   -0.15148E+01   -0.21888E+00 13360   0.100E+01    0.441E+01
DAV:  31    -0.133166853060E+04   -0.31826E+01   -0.31982E+00 13376   0.125E+01    0.547E+01
DAV:  32    -0.133136010852E+04    0.30842E+00   -0.32363E+00 13376   0.125E+01    0.523E+01
DAV:  33    -0.132751194116E+04    0.38482E+01   -0.24957E+00 13392   0.987E+00    0.345E+01
DAV:  34    -0.132588747330E+04    0.16245E+01   -0.14924E+00 13408   0.753E+00    0.268E+01
DAV:  35    -0.132576549427E+04    0.12198E+00   -0.11879E+00 13440   0.658E+00    0.268E+01
DAV:  36    -0.132594856003E+04   -0.18307E+00   -0.12250E+00 13296   0.670E+00    0.283E+01
DAV:  37    -0.132580338010E+04    0.14518E+00   -0.11593E+00 13408   0.652E+00    0.282E+01
DAV:  38    -0.132550916459E+04    0.29422E+00   -0.10853E+00 13392   0.629E+00    0.261E+01
DAV:  39    -0.132491605391E+04    0.59311E+00   -0.80451E-01 13360   0.508E+00    0.217E+01
DAV:  40    -0.132456805147E+04    0.34800E+00   -0.49395E-01 13368   0.413E+00    0.184E+01
DAV:  41    -0.132432875440E+04    0.23930E+00   -0.31765E-01 13392   0.304E+00    0.149E+01
DAV:  42    -0.132424276624E+04    0.85988E-01   -0.25049E-01 13384   0.276E+00    0.133E+01
DAV:  43    -0.132412467712E+04    0.11809E+00   -0.25486E-01 13440   0.265E+00    0.110E+01
DAV:  44    -0.132398057934E+04    0.14410E+00   -0.13546E-01 13376   0.193E+00    0.817E+00
DAV:  45    -0.132401540138E+04   -0.34822E-01   -0.10897E-01 13392   0.179E+00    0.922E+00
DAV:  46    -0.132398105348E+04    0.34348E-01   -0.11417E-01 13448   0.173E+00    0.844E+00
DAV:  47    -0.132396519437E+04    0.15859E-01   -0.10309E-01 13408   0.177E+00    0.835E+00
DAV:  48    -0.132391875785E+04    0.46437E-01   -0.62409E-02 13376   0.142E+00    0.657E+00
DAV:  49    -0.132398424173E+04   -0.65484E-01   -0.72463E-02 13600   0.153E+00    0.877E+00
DAV:  50    -0.132396633217E+04    0.17910E-01   -0.65138E-02 13480   0.130E+00    0.828E+00
DAV:  51    -0.132411927226E+04   -0.15294E+00   -0.25024E-01 19632   0.239E+00    0.106E+01
DAV:  52    -0.132392555486E+04    0.19372E+00   -0.94784E-02 14952   0.153E+00    0.590E+00
DAV:  53    -0.132392475695E+04    0.79791E-03   -0.57553E-02 14688   0.122E+00    0.629E+00
DAV:  54    -0.132394422924E+04   -0.19472E-01   -0.64631E-02 14712   0.159E+00    0.693E+00
DAV:  55    -0.132393260561E+04    0.11624E-01   -0.70908E-02 14608   0.152E+00    0.645E+00
DAV:  56    -0.132426299755E+04   -0.33039E+00   -0.39369E-01 18032   0.341E+00    0.125E+01
DAV:  57    -0.132415267970E+04    0.11032E+00   -0.33154E-01 15976   0.307E+00    0.107E+01
DAV:  58    -0.132398076301E+04    0.17192E+00   -0.20059E-01 15368   0.265E+00    0.747E+00
DAV:  59    -0.132389066380E+04    0.90099E-01   -0.85684E-02 14592   0.161E+00    0.477E+00
DAV:  60    -0.132389873750E+04   -0.80737E-02   -0.60236E-02 14496   0.131E+00    0.486E+00
DAV:  61    -0.132399128607E+04   -0.92549E-01   -0.10828E-01 14560   0.200E+00    0.816E+00
DAV:  62    -0.132388389717E+04    0.10739E+00   -0.86809E-02 14264   0.171E+00    0.445E+00
DAV:  63    -0.132387885954E+04    0.50376E-02   -0.38664E-02 14208   0.119E+00    0.454E+00
DAV:  64    -0.132387497867E+04    0.38809E-02   -0.27340E-02 14080   0.981E-01    0.420E+00
DAV:  65    -0.132385636437E+04    0.18614E-01   -0.28617E-02 14072   0.987E-01    0.312E+00
DAV:  66    -0.132401004830E+04   -0.15368E+00   -0.88793E-02 15032   0.177E+00    0.850E+00
DAV:  67    -0.132386588740E+04    0.14416E+00   -0.85830E-02 14096   0.166E+00    0.372E+00
DAV:  68    -0.132384962161E+04    0.16266E-01   -0.25743E-02 13976   0.857E-01    0.241E+00
DAV:  69    -0.132384155393E+04    0.80677E-02   -0.11579E-02 13424   0.623E-01    0.202E+00
DAV:  70    -0.132383937177E+04    0.21822E-02   -0.75441E-03 13376   0.475E-01    0.151E+00
DAV:  71    -0.132385179152E+04   -0.12420E-01   -0.11323E-02 13440   0.621E-01    0.277E+00
DAV:  72    -0.132383844242E+04    0.13349E-01   -0.10469E-02 13416   0.566E-01    0.130E+00
DAV:  73    -0.132383534848E+04    0.30939E-02   -0.29810E-03 13320   0.322E-01    0.835E-01
DAV:  74    -0.132383532049E+04    0.27992E-04   -0.15087E-03 13344   0.210E-01    0.762E-01
DAV:  75    -0.132383506704E+04    0.25345E-03   -0.11976E-03 13376   0.196E-01    0.576E-01
DAV:  76    -0.132383810623E+04   -0.30392E-02   -0.20136E-03 13472   0.257E-01    0.135E+00
DAV:  77    -0.132383472251E+04    0.33837E-02   -0.18488E-03 13440   0.238E-01    0.424E-01
DAV:  78    -0.132383478212E+04   -0.59610E-04   -0.33970E-04 13776   0.987E-02    0.401E-01
DAV:  79    -0.132383488860E+04   -0.10647E-03   -0.25036E-04 13304   0.831E-02    0.370E-01
DAV:  80    -0.132383499159E+04   -0.10299E-03   -0.25043E-04 13224   0.842E-02    0.339E-01
DAV:  81    -0.132383718453E+04   -0.21929E-02   -0.10334E-03 14552   0.185E-01    0.101E+00
DAV:  82    -0.132383507416E+04    0.21104E-02   -0.97568E-04 13888   0.181E-01    0.309E-01
DAV:  83    -0.132383505117E+04    0.22992E-04   -0.13851E-04 14080   0.661E-02    0.205E-01
DAV:  84    -0.132383527414E+04   -0.22297E-03   -0.10435E-04 13592   0.571E-02    0.192E-01
DAV:  85    -0.132383532570E+04   -0.51562E-04   -0.82157E-05 13496   0.505E-02    0.156E-01
DAV:  86    -0.132383574276E+04   -0.41706E-03   -0.23420E-04 15112   0.858E-02    0.419E-01
DAV:  87    -0.132383541393E+04    0.32883E-03   -0.24758E-04 14168   0.852E-02    0.198E-01
DAV:  88    -0.132383542994E+04   -0.16013E-04   -0.54229E-05 12448   0.391E-02    0.153E-01
DAV:  89    -0.132383551968E+04   -0.89745E-04   -0.38121E-05 10536   0.329E-02    0.126E-01
DAV:  90    -0.132383560000E+04   -0.80319E-04   -0.32889E-05 10216   0.312E-02    0.100E-01
DAV:  91    -0.132383583775E+04   -0.23774E-03   -0.12151E-04 16040   0.621E-02    0.293E-01
DAV:  92    -0.132383564529E+04    0.19246E-03   -0.10498E-04 14112   0.598E-02    0.727E-02
DAV:  93    -0.132383564860E+04   -0.33120E-05   -0.13934E-05  7360   0.189E-02
   1 F= -.14212617E+04 E0= -.14205289E+04  d E =-.146560E+01
