 254 254   0   0
  0.2268316E+02  0.1514622E-08  0.1514622E-08  0.2900000E-08  0.5000000E-15
   1.0000000000000000E-004
  CAR 
 NiAl                                    
      6.11580287    -26.82632634  301     -0.58015025      1.00000000
    -26.826  0.0000E+00  0.0000E+00
    -26.717  0.0000E+00  0.0000E+00
    -26.607  0.0000E+00  0.0000E+00
    -26.497  0.0000E+00  0.0000E+00
    -26.387  0.0000E+00  0.0000E+00
    -26.277  0.0000E+00  0.0000E+00
    -26.167  0.0000E+00  0.0000E+00
    -26.058  0.0000E+00  0.0000E+00
    -25.948  0.0000E+00  0.0000E+00
    -25.838  0.0000E+00  0.0000E+00
    -25.728  0.0000E+00  0.0000E+00
    -25.618  0.2022E-14  0.2220E-15
    -25.509  0.3284E-05  0.3607E-06
    -25.399  0.4315E+00  0.4738E-01
    -25.289  0.1540E+02  0.1739E+01
    -25.179  0.2381E+01  0.2000E+01
    -25.069  0.2140E-03  0.2000E+01
    -24.960  0.2027E-11  0.2000E+01
    -24.850  0.0000E+00  0.2000E+01
    -24.740  0.0000E+00  0.2000E+01
    -24.630  0.0000E+00  0.2000E+01
    -24.520  0.0000E+00  0.2000E+01
    -24.411  0.0000E+00  0.2000E+01
    -24.301  0.0000E+00  0.2000E+01
    -24.191  0.0000E+00  0.2000E+01
    -24.081  0.0000E+00  0.2000E+01
    -23.971  0.0000E+00  0.2000E+01
    -23.862  0.0000E+00  0.2000E+01
    -23.752  0.0000E+00  0.2000E+01
    -23.642  0.0000E+00  0.2000E+01
    -23.532  0.0000E+00  0.2000E+01
    -23.422  0.0000E+00  0.2000E+01
    -23.312  0.0000E+00  0.2000E+01
    -23.203  0.0000E+00  0.2000E+01
    -23.093  0.0000E+00  0.2000E+01
    -22.983  0.0000E+00  0.2000E+01
    -22.873  0.0000E+00  0.2000E+01
    -22.763  0.0000E+00  0.2000E+01
    -22.654  0.0000E+00  0.2000E+01
    -22.544  0.0000E+00  0.2000E+01
    -22.434  0.0000E+00  0.2000E+01
    -22.324  0.0000E+00  0.2000E+01
    -22.214  0.0000E+00  0.2000E+01
    -22.105  0.0000E+00  0.2000E+01
    -21.995  0.0000E+00  0.2000E+01
    -21.885  0.0000E+00  0.2000E+01
    -21.775  0.0000E+00  0.2000E+01
    -21.665  0.0000E+00  0.2000E+01
    -21.556  0.0000E+00  0.2000E+01
    -21.446  0.0000E+00  0.2000E+01
    -21.336  0.0000E+00  0.2000E+01
    -21.226  0.0000E+00  0.2000E+01
    -21.116  0.0000E+00  0.2000E+01
    -21.007  0.0000E+00  0.2000E+01
    -20.897  0.0000E+00  0.2000E+01
    -20.787  0.0000E+00  0.2000E+01
    -20.677  0.0000E+00  0.2000E+01
    -20.567  0.0000E+00  0.2000E+01
    -20.458  0.0000E+00  0.2000E+01
    -20.348  0.0000E+00  0.2000E+01
    -20.238  0.0000E+00  0.2000E+01
    -20.128  0.0000E+00  0.2000E+01
    -20.018  0.0000E+00  0.2000E+01
    -19.908  0.0000E+00  0.2000E+01
    -19.799  0.0000E+00  0.2000E+01
    -19.689  0.0000E+00  0.2000E+01
    -19.579  0.0000E+00  0.2000E+01
    -19.469  0.0000E+00  0.2000E+01
    -19.359  0.0000E+00  0.2000E+01
    -19.250  0.0000E+00  0.2000E+01
    -19.140  0.0000E+00  0.2000E+01
    -19.030  0.0000E+00  0.2000E+01
    -18.920  0.0000E+00  0.2000E+01
    -18.810  0.0000E+00  0.2000E+01
    -18.701  0.0000E+00  0.2000E+01
    -18.591  0.0000E+00  0.2000E+01
    -18.481  0.0000E+00  0.2000E+01
    -18.371  0.0000E+00  0.2000E+01
    -18.261  0.0000E+00  0.2000E+01
    -18.152  0.0000E+00  0.2000E+01
    -18.042  0.0000E+00  0.2000E+01
    -17.932  0.0000E+00  0.2000E+01
    -17.822  0.0000E+00  0.2000E+01
    -17.712  0.0000E+00  0.2000E+01
    -17.603  0.0000E+00  0.2000E+01
    -17.493  0.0000E+00  0.2000E+01
    -17.383  0.0000E+00  0.2000E+01
    -17.273  0.0000E+00  0.2000E+01
    -17.163  0.0000E+00  0.2000E+01
    -17.053  0.0000E+00  0.2000E+01
    -16.944  0.0000E+00  0.2000E+01
    -16.834  0.0000E+00  0.2000E+01
    -16.724  0.0000E+00  0.2000E+01
    -16.614  0.0000E+00  0.2000E+01
    -16.504  0.0000E+00  0.2000E+01
    -16.395  0.0000E+00  0.2000E+01
    -16.285  0.0000E+00  0.2000E+01
    -16.175  0.0000E+00  0.2000E+01
    -16.065  0.0000E+00  0.2000E+01
    -15.955  0.0000E+00  0.2000E+01
    -15.846  0.0000E+00  0.2000E+01
    -15.736  0.0000E+00  0.2000E+01
    -15.626  0.0000E+00  0.2000E+01
    -15.516  0.0000E+00  0.2000E+01
    -15.406  0.0000E+00  0.2000E+01
    -15.297  0.0000E+00  0.2000E+01
    -15.187  0.0000E+00  0.2000E+01
    -15.077  0.0000E+00  0.2000E+01
    -14.967  0.0000E+00  0.2000E+01
    -14.857  0.7623E-07  0.2000E+01
    -14.748  0.7222E-01  0.2008E+01
    -14.638  0.1220E+02  0.3348E+01
    -14.528  0.5935E+01  0.4000E+01
    -14.418  0.3421E-02  0.4000E+01
    -14.308  0.2453E-09  0.4000E+01
    -14.199  0.0000E+00  0.4000E+01
    -14.089  0.0000E+00  0.4000E+01
    -13.979  0.0000E+00  0.4000E+01
    -13.869  0.0000E+00  0.4000E+01
    -13.759  0.0000E+00  0.4000E+01
    -13.649  0.0000E+00  0.4000E+01
    -13.540  0.0000E+00  0.4000E+01
    -13.430  0.0000E+00  0.4000E+01
    -13.320  0.0000E+00  0.4000E+01
    -13.210  0.0000E+00  0.4000E+01
    -13.100  0.0000E+00  0.4000E+01
    -12.991  0.0000E+00  0.4000E+01
    -12.881  0.0000E+00  0.4000E+01
    -12.771  0.0000E+00  0.4000E+01
    -12.661  0.0000E+00  0.4000E+01
    -12.551  0.0000E+00  0.4000E+01
    -12.442  0.0000E+00  0.4000E+01
    -12.332  0.0000E+00  0.4000E+01
    -12.222  0.0000E+00  0.4000E+01
    -12.112  0.0000E+00  0.4000E+01
    -12.002  0.0000E+00  0.4000E+01
    -11.893  0.0000E+00  0.4000E+01
    -11.783  0.0000E+00  0.4000E+01
    -11.673  0.0000E+00  0.4000E+01
    -11.563  0.0000E+00  0.4000E+01
    -11.453  0.0000E+00  0.4000E+01
    -11.344  0.0000E+00  0.4000E+01
    -11.234  0.0000E+00  0.4000E+01
    -11.124  0.0000E+00  0.4000E+01
    -11.014  0.0000E+00  0.4000E+01
    -10.904  0.0000E+00  0.4000E+01
    -10.794  0.0000E+00  0.4000E+01
    -10.685  0.0000E+00  0.4000E+01
    -10.575  0.0000E+00  0.4000E+01
    -10.465  0.0000E+00  0.4000E+01
    -10.355  0.0000E+00  0.4000E+01
    -10.245  0.0000E+00  0.4000E+01
    -10.136  0.0000E+00  0.4000E+01
    -10.026  0.0000E+00  0.4000E+01
     -9.916  0.0000E+00  0.4000E+01
     -9.806  0.0000E+00  0.4000E+01
     -9.696  0.0000E+00  0.4000E+01
     -9.587  0.0000E+00  0.4000E+01
     -9.477  0.0000E+00  0.4000E+01
     -9.367  0.2809E-09  0.4000E+01
     -9.257  0.1982E-02  0.4000E+01
     -9.147  0.1872E+01  0.4206E+01
     -9.038  0.2674E+01  0.4499E+01
     -8.928  0.7776E+01  0.5353E+01
     -8.818  0.1940E+02  0.7483E+01
     -8.708  0.1656E+00  0.7501E+01
     -8.598  0.2848E+01  0.7814E+01
     -8.489  0.6069E+01  0.8481E+01
     -8.379  0.3743E+02  0.1259E+02
     -8.269  0.1681E+02  0.1444E+02
     -8.159  0.2279E+02  0.1694E+02
     -8.049  0.5747E+00  0.1700E+02
     -7.940  0.1382E+02  0.1852E+02
     -7.830  0.1387E+02  0.2004E+02
     -7.720  0.1939E+02  0.2217E+02
     -7.610  0.2839E+02  0.2529E+02
     -7.500  0.6418E+02  0.3234E+02
     -7.390  0.1495E+01  0.3250E+02
     -7.281  0.9118E+01  0.3350E+02
     -7.171  0.3380E+02  0.3721E+02
     -7.061  0.7849E+02  0.4583E+02
     -6.951  0.1556E+02  0.4754E+02
     -6.841  0.1779E+02  0.4949E+02
     -6.732  0.1579E+02  0.5123E+02
     -6.622  0.2177E+02  0.5362E+02
     -6.512  0.4409E+02  0.5846E+02
     -6.402  0.7174E+02  0.6634E+02
     -6.292  0.7752E+02  0.7485E+02
     -6.183  0.1530E+02  0.7653E+02
     -6.073  0.4882E+02  0.8189E+02
     -5.963  0.9848E+02  0.9270E+02
     -5.853  0.2998E+02  0.9599E+02
     -5.743  0.1464E+01  0.9615E+02
     -5.634  0.1447E+02  0.9774E+02
     -5.524  0.5217E+02  0.1035E+03
     -5.414  0.1490E+03  0.1198E+03
     -5.304  0.5020E+02  0.1253E+03
     -5.194  0.7319E+02  0.1334E+03
     -5.085  0.1098E+03  0.1454E+03
     -4.975  0.9974E+02  0.1564E+03
     -4.865  0.3593E+02  0.1603E+03
     -4.755  0.2091E+03  0.1833E+03
     -4.645  0.1794E+03  0.2030E+03
     -4.535  0.2235E+03  0.2275E+03
     -4.426  0.2360E+03  0.2535E+03
     -4.316  0.3000E+03  0.2864E+03
     -4.206  0.2378E+03  0.3125E+03
     -4.096  0.2137E+03  0.3360E+03
     -3.986  0.3850E+03  0.3783E+03
     -3.877  0.4350E+03  0.4260E+03
     -3.767  0.5057E+03  0.4815E+03
     -3.657  0.4026E+03  0.5257E+03
     -3.547  0.4778E+03  0.5782E+03
     -3.437  0.3674E+03  0.6186E+03
     -3.328  0.3339E+03  0.6552E+03
     -3.218  0.4136E+03  0.7006E+03
     -3.108  0.5230E+03  0.7581E+03
     -2.998  0.3679E+03  0.7985E+03
     -2.888  0.5260E+03  0.8562E+03
     -2.779  0.5561E+03  0.9173E+03
     -2.669  0.5080E+03  0.9731E+03
     -2.559  0.5349E+03  0.1032E+04
     -2.449  0.6744E+03  0.1106E+04
     -2.339  0.7280E+03  0.1186E+04
     -2.230  0.9215E+03  0.1287E+04
     -2.120  0.7781E+03  0.1372E+04
     -2.010  0.9301E+03  0.1475E+04
     -1.900  0.7622E+03  0.1558E+04
     -1.790  0.5708E+03  0.1621E+04
     -1.681  0.5731E+03  0.1684E+04
     -1.571  0.5310E+03  0.1742E+04
     -1.461  0.6430E+03  0.1813E+04
     -1.351  0.8259E+03  0.1903E+04
     -1.241  0.5976E+03  0.1969E+04
     -1.131  0.6060E+03  0.2036E+04
     -1.022  0.7597E+03  0.2119E+04
     -0.912  0.8826E+03  0.2216E+04
     -0.802  0.6366E+03  0.2286E+04
     -0.692  0.9257E+03  0.2388E+04
     -0.582  0.1290E+04  0.2529E+04
     -0.473  0.8971E+03  0.2628E+04
     -0.363  0.3131E+03  0.2662E+04
     -0.253  0.1334E+03  0.2677E+04
     -0.143  0.1390E+03  0.2692E+04
     -0.033  0.1717E+03  0.2711E+04
      0.076  0.8027E+02  0.2720E+04
      0.186  0.5707E+02  0.2726E+04
      0.296  0.2519E+02  0.2729E+04
      0.406  0.1161E+03  0.2741E+04
      0.516  0.8402E+02  0.2751E+04
      0.625  0.1033E+03  0.2762E+04
      0.735  0.6787E+02  0.2769E+04
      0.845  0.1165E+03  0.2782E+04
      0.955  0.1452E+03  0.2798E+04
      1.065  0.3608E+02  0.2802E+04
      1.174  0.3025E+02  0.2805E+04
      1.284  0.1315E+03  0.2820E+04
      1.394  0.3491E+02  0.2824E+04
      1.504  0.4840E+02  0.2829E+04
      1.614  0.1118E+03  0.2841E+04
      1.724  0.8352E+02  0.2850E+04
      1.833  0.7812E+02  0.2859E+04
      1.943  0.1058E+03  0.2871E+04
      2.053  0.3719E+02  0.2875E+04
      2.163  0.7397E+02  0.2883E+04
      2.273  0.1290E+03  0.2897E+04
      2.382  0.7576E+02  0.2905E+04
      2.492  0.3250E+02  0.2909E+04
      2.602  0.6031E+02  0.2916E+04
      2.712  0.1812E+02  0.2918E+04
      2.822  0.2817E+02  0.2921E+04
      2.931  0.7045E+02  0.2928E+04
      3.041  0.2099E+03  0.2951E+04
      3.151  0.1210E+03  0.2965E+04
      3.261  0.1940E+02  0.2967E+04
      3.371  0.2431E+02  0.2970E+04
      3.480  0.1195E+03  0.2983E+04
      3.590  0.1255E+02  0.2984E+04
      3.700  0.8951E+02  0.2994E+04
      3.810  0.1540E+02  0.2996E+04
      3.920  0.2203E+02  0.2998E+04
      4.029  0.7299E+01  0.2999E+04
      4.139  0.6324E+02  0.3006E+04
      4.249  0.2517E+02  0.3008E+04
      4.359  0.6299E+02  0.3015E+04
      4.469  0.8399E+02  0.3025E+04
      4.579  0.6362E+02  0.3032E+04
      4.688  0.5783E+02  0.3038E+04
      4.798  0.4795E+00  0.3038E+04
      4.908  0.2529E-05  0.3038E+04
      5.018  0.1517E-14  0.3038E+04
      5.128  0.0000E+00  0.3038E+04
      5.237  0.0000E+00  0.3038E+04
      5.347  0.0000E+00  0.3038E+04
      5.457  0.0000E+00  0.3038E+04
      5.567  0.0000E+00  0.3038E+04
      5.677  0.0000E+00  0.3038E+04
      5.786  0.0000E+00  0.3038E+04
      5.896  0.0000E+00  0.3038E+04
      6.006  0.0000E+00  0.3038E+04
      6.116  0.0000E+00  0.3038E+04
