  254  254    1    1
  0.2268316E+02  0.1514622E-08  0.1514622E-08  0.2900000E-08  0.5000000E-15
   1.0000000000000000E-004
  CAR 
 NiAl                                    
   2532      4   1519
 
  0.1262379E-14  0.1262379E-14  0.1262379E-14  0.2500000E+00
    1      -25.328957   1.000000
    2      -14.653732   1.000000
    3       -9.139483   1.000000
    4       -8.609907   1.000000
    5       -8.231739   1.000000
    6       -8.231730   1.000000
    7       -8.231720   1.000000
    8       -8.231715   1.000000
    9       -8.231690   1.000000
   10       -8.231667   1.000000
   11       -7.781016   1.000000
   12       -7.725662   1.000000
   13       -7.725653   1.000000
   14       -7.725651   1.000000
   15       -7.725625   1.000000
   16       -7.725597   1.000000
   17       -7.725594   1.000000
   18       -7.281814   1.000000
   19       -6.937424   1.000000
   20       -6.937389   1.000000
   21       -6.937384   1.000000
   22       -6.937291   1.000000
   23       -6.937268   1.000000
   24       -6.937257   1.000000
   25       -6.750810   1.000000
   26       -6.591305   1.000000
   27       -6.591296   1.000000
   28       -6.591293   1.000000
   29       -6.591277   1.000000
   30       -6.591267   1.000000
   31       -6.591247   1.000000
   32       -6.406460   1.000000
   33       -6.399988   1.000000
   34       -6.168593   1.000000
   35       -6.168590   1.000000
   36       -6.168572   1.000000
   37       -6.168566   1.000000
   38       -6.168531   1.000000
   39       -6.168393   1.000000
   40       -5.965592   1.000000
   41       -5.965544   1.000000
   42       -5.965539   1.000000
   43       -5.965318   1.000000
   44       -5.965278   1.000000
   45       -5.963963   1.000000
   46       -5.960653   1.000000
   47       -5.960652   1.000000
   48       -5.960638   1.000000
   49       -5.960635   1.000000
   50       -5.960627   1.000000
   51       -5.960623   1.000000
   52       -5.725570   1.000000
   53       -5.625590   1.000000
   54       -5.625584   1.000000
   55       -5.625581   1.000000
   56       -5.625569   1.000000
   57       -5.625559   1.000000
   58       -5.625549   1.000000
   59       -5.535462   1.000000
   60       -5.535461   1.000000
   61       -5.535442   1.000000
   62       -5.535429   1.000000
   63       -5.535397   1.000000
   64       -5.535292   1.000000
   65       -5.168183   1.000000
   66       -5.168177   1.000000
   67       -5.168163   1.000000
   68       -5.168154   1.000000
   69       -5.168132   1.000000
   70       -5.168123   1.000000
   71       -5.070381   1.000000
   72       -5.014820   1.000000
   73       -5.014767   1.000000
   74       -5.014758   1.000000
   75       -5.014504   1.000000
   76       -5.014481   1.000000
   77       -5.013612   1.000000
   78       -4.880464   1.000000
   79       -4.822843   1.000000
   80       -4.822842   1.000000
   81       -4.822782   1.000000
   82       -4.804313   1.000000
   83       -4.804301   1.000000
   84       -4.804278   1.000000
   85       -4.804241   1.000000
   86       -4.804221   1.000000
   87       -4.804118   1.000000
   88       -4.700364   1.000000
   89       -4.700359   1.000000
   90       -4.700349   1.000000
   91       -4.700339   1.000000
   92       -4.700281   1.000000
   93       -4.700274   1.000000
   94       -4.666762   1.000000
   95       -4.666759   1.000000
   96       -4.666662   1.000000
   97       -4.590646   1.000000
   98       -4.590634   1.000000
   99       -4.590632   1.000000
  100       -4.590625   1.000000
  101       -4.590599   1.000000
  102       -4.590590   1.000000
  103       -4.590580   1.000000
  104       -4.590570   1.000000
  105       -4.590564   1.000000
  106       -4.590564   1.000000
  107       -4.590561   1.000000
  108       -4.590557   1.000000
  109       -4.544777   1.000000
  110       -4.544777   1.000000
  111       -4.544708   1.000000
  112       -4.458377   1.000000
  113       -4.458374   1.000000
  114       -4.458271   1.000000
  115       -4.436685   1.000000
  116       -4.436664   1.000000
  117       -4.436646   1.000000
  118       -4.436523   1.000000
  119       -4.436476   1.000000
  120       -4.435956   1.000000
  121       -4.392157   1.000000
  122       -4.392144   1.000000
  123       -4.392142   1.000000
  124       -4.392136   1.000000
  125       -4.392120   1.000000
  126       -4.392111   1.000000
  127       -4.392100   1.000000
  128       -4.392097   1.000000
  129       -4.392075   1.000000
  130       -4.392073   1.000000
  131       -4.392066   1.000000
  132       -4.392059   1.000000
  133       -4.357669   1.000000
  134       -4.357663   1.000000
  135       -4.357651   1.000000
  136       -4.357643   1.000000
  137       -4.357627   1.000000
  138       -4.357620   1.000000
  139       -4.357608   1.000000
  140       -4.357606   1.000000
  141       -4.357597   1.000000
  142       -4.357586   1.000000
  143       -4.357585   1.000000
  144       -4.357561   1.000000
  145       -4.312835   1.000000
  146       -4.312825   1.000000
  147       -4.312807   1.000000
  148       -4.312778   1.000000
  149       -4.312729   1.000000
  150       -4.312534   1.000000
  151       -4.276521   1.000000
  152       -4.276518   1.000000
  153       -4.276503   1.000000
  154       -4.276487   1.000000
  155       -4.276399   1.000000
  156       -4.276382   1.000000
  157       -4.256660   1.000000
  158       -4.256658   1.000000
  159       -4.256555   1.000000
  160       -4.219646   1.000000
  161       -4.219633   1.000000
  162       -4.219620   1.000000
  163       -4.219610   1.000000
  164       -4.219608   1.000000
  165       -4.219599   1.000000
  166       -4.219593   1.000000
  167       -4.219584   1.000000
  168       -4.219572   1.000000
  169       -4.219559   1.000000
  170       -4.219550   1.000000
  171       -4.219540   1.000000
  172       -4.149593   1.000000
  173       -4.149582   1.000000
  174       -4.149567   1.000000
  175       -4.149532   1.000000
  176       -4.149508   1.000000
  177       -4.149430   1.000000
  178       -4.110399   1.000000
  179       -4.110396   1.000000
  180       -4.110226   1.000000
  181       -4.042118   1.000000
  182       -4.042114   1.000000
  183       -4.042003   1.000000
  184       -4.019711   1.000000
  185       -4.019703   1.000000
  186       -4.019678   1.000000
  187       -4.019672   1.000000
  188       -4.019667   1.000000
  189       -4.019656   1.000000
  190       -4.019650   1.000000
  191       -4.019637   1.000000
  192       -4.019620   1.000000
  193       -4.019607   1.000000
  194       -4.019597   1.000000
  195       -4.019586   1.000000
  196       -3.956646   1.000000
  197       -3.956640   1.000000
  198       -3.956501   1.000000
  199       -3.902220   1.000000
  200       -3.902215   1.000000
  201       -3.902071   1.000000
  202       -3.899805   1.000000
  203       -3.899801   1.000000
  204       -3.899781   1.000000
  205       -3.899770   1.000000
  206       -3.899649   1.000000
  207       -3.899623   1.000000
  208       -3.830440   1.000000
  209       -3.830436   1.000000
  210       -3.830425   1.000000
  211       -3.830422   1.000000
  212       -3.830410   1.000000
  213       -3.830405   1.000000
  214       -3.830399   1.000000
  215       -3.830385   1.000000
  216       -3.830240   1.000000
  217       -3.830231   1.000000
  218       -3.830227   1.000000
  219       -3.830210   1.000000
  220       -3.824298   1.000000
  221       -3.824279   1.000000
  222       -3.824274   1.000000
  223       -3.824261   1.000000
  224       -3.824135   1.000000
  225       -3.824133   1.000000
  226       -3.771296   1.000000
  227       -3.771291   1.000000
  228       -3.771280   1.000000
  229       -3.771270   1.000000
  230       -3.771257   1.000000
  231       -3.771254   1.000000
  232       -3.771238   1.000000
  233       -3.771217   1.000000
  234       -3.771210   1.000000
  235       -3.771195   1.000000
  236       -3.771184   1.000000
  237       -3.771172   1.000000
  238       -3.748299   1.000000
  239       -3.748284   1.000000
  240       -3.748243   1.000000
  241       -3.748237   1.000000
  242       -3.748213   1.000000
  243       -3.748182   1.000000
  244       -3.708877   1.000000
  245       -3.708866   1.000000
  246       -3.708855   1.000000
  247       -3.708847   1.000000
  248       -3.708759   1.000000
  249       -3.708741   1.000000
  250       -3.705034   1.000000
  251       -3.705017   1.000000
  252       -3.704937   1.000000
  253       -3.704936   1.000000
  254       -3.696749   1.000000
  255       -3.696724   1.000000
  256       -3.642276   1.000000
  257       -3.642243   1.000000
  258       -3.642231   1.000000
  259       -3.642224   1.000000
  260       -3.642217   1.000000
  261       -3.642207   1.000000
  262       -3.642202   1.000000
  263       -3.642193   1.000000
  264       -3.642084   1.000000
  265       -3.642068   1.000000
  266       -3.642042   1.000000
  267       -3.642026   1.000000
  268       -3.633501   1.000000
  269       -3.633489   1.000000
  270       -3.633386   1.000000
  271       -3.609016   1.000000
  272       -3.609000   1.000000
  273       -3.608999   1.000000
  274       -3.608984   1.000000
  275       -3.586789   1.000000
  276       -3.586761   1.000000
  277       -3.586750   1.000000
  278       -3.586729   1.000000
  279       -3.586575   1.000000
  280       -3.586566   1.000000
  281       -3.575371   1.000000
  282       -3.575352   1.000000
  283       -3.565068   1.000000
  284       -3.565062   1.000000
  285       -3.564988   1.000000
  286       -3.564983   1.000000
  287       -3.563230   1.000000
  288       -3.563212   1.000000
  289       -3.560016   1.000000
  290       -3.560006   1.000000
  291       -3.559971   1.000000
  292       -3.559958   1.000000
  293       -3.559946   1.000000
  294       -3.559909   1.000000
  295       -3.491263   1.000000
  296       -3.491255   1.000000
  297       -3.491249   1.000000
  298       -3.491241   1.000000
  299       -3.483816   1.000000
  300       -3.483803   1.000000
  301       -3.483775   1.000000
  302       -3.483764   1.000000
  303       -3.483722   1.000000
  304       -3.483720   1.000000
  305       -3.483697   1.000000
  306       -3.483693   1.000000
  307       -3.483672   1.000000
  308       -3.483657   1.000000
  309       -3.483643   1.000000
  310       -3.483617   1.000000
  311       -3.412239   1.000000
  312       -3.412234   1.000000
  313       -3.412175   1.000000
  314       -3.412165   1.000000
  315       -3.412152   1.000000
  316       -3.412145   1.000000
  317       -3.376110   1.000000
  318       -3.376074   1.000000
  319       -3.376053   1.000000
  320       -3.376040   1.000000
  321       -3.376030   1.000000
  322       -3.376024   1.000000
  323       -3.376016   1.000000
  324       -3.375995   1.000000
  325       -3.375939   1.000000
  326       -3.375908   1.000000
  327       -3.375884   1.000000
  328       -3.375879   1.000000
  329       -3.365523   1.000000
  330       -3.365496   1.000000
  331       -3.365433   1.000000
  332       -3.365431   1.000000
  333       -3.365423   1.000000
  334       -3.365413   1.000000
  335       -3.358287   1.000000
  336       -3.358255   1.000000
  337       -3.358234   1.000000
  338       -3.358211   1.000000
  339       -3.358127   1.000000
  340       -3.358100   1.000000
  341       -3.270359   1.000000
  342       -3.270353   1.000000
  343       -3.270317   1.000000
  344       -3.230552   1.000000
  345       -3.230488   1.000000
  346       -3.230444   1.000000
  347       -3.230430   1.000000
  348       -3.230419   1.000000
  349       -3.230409   1.000000
  350       -3.219068   1.000000
  351       -3.219020   1.000000
  352       -3.196085   1.000000
  353       -3.196064   1.000000
  354       -3.196037   1.000000
  355       -3.196010   1.000000
  356       -3.195999   1.000000
  357       -3.195992   1.000000
  358       -3.195986   1.000000
  359       -3.195969   1.000000
  360       -3.195939   1.000000
  361       -3.195926   1.000000
  362       -3.195908   1.000000
  363       -3.195902   1.000000
  364       -3.186722   1.000000
  365       -3.186670   1.000000
  366       -3.124969   1.000000
  367       -3.124946   1.000000
  368       -3.124921   1.000000
  369       -3.124904   1.000000
  370       -3.124862   1.000000
  371       -3.124849   1.000000
  372       -3.099613   1.000000
  373       -3.099566   1.000000
  374       -3.099511   1.000000
  375       -3.099479   1.000000
  376       -3.099467   1.000000
  377       -3.099451   1.000000
  378       -3.099091   1.000000
  379       -3.099070   1.000000
  380       -3.099054   1.000000
  381       -3.099048   1.000000
  382       -3.098967   1.000000
  383       -3.098950   1.000000
  384       -3.047488   1.000000
  385       -3.047476   1.000000
  386       -3.047453   1.000000
  387       -3.047439   1.000000
  388       -3.047425   1.000000
  389       -3.047425   1.000000
  390       -3.047418   1.000000
  391       -3.047416   1.000000
  392       -3.047390   1.000000
  393       -3.047367   1.000000
  394       -3.047359   1.000000
  395       -3.047346   1.000000
  396       -2.992268   1.000000
  397       -2.992264   1.000000
  398       -2.992168   1.000000
  399       -2.992162   1.000000
  400       -2.992155   1.000000
  401       -2.992144   1.000000
  402       -2.933350   1.000000
  403       -2.933338   1.000000
  404       -2.933254   1.000000
  405       -2.933218   1.000000
  406       -2.933184   1.000000
  407       -2.933086   1.000000
  408       -2.923100   1.000000
  409       -2.923068   1.000000
  410       -2.923060   1.000000
  411       -2.923039   1.000000
  412       -2.923019   1.000000
  413       -2.922986   1.000000
  414       -2.896738   1.000000
  415       -2.896730   1.000000
  416       -2.896709   1.000000
  417       -2.896700   1.000000
  418       -2.896689   1.000000
  419       -2.896675   1.000000
  420       -2.890366   1.000000
  421       -2.890358   1.000000
  422       -2.890266   1.000000
  423       -2.890242   1.000000
  424       -2.890212   1.000000
  425       -2.890151   1.000000
  426       -2.867037   1.000000
  427       -2.867031   1.000000
  428       -2.867031   1.000000
  429       -2.866995   1.000000
  430       -2.866987   1.000000
  431       -2.866965   1.000000
  432       -2.862881   1.000000
  433       -2.862863   1.000000
  434       -2.862859   1.000000
  435       -2.862852   1.000000
  436       -2.862828   1.000000
  437       -2.862824   1.000000
  438       -2.862802   1.000000
  439       -2.862797   1.000000
  440       -2.862784   1.000000
  441       -2.862773   1.000000
  442       -2.862760   1.000000
  443       -2.862744   1.000000
  444       -2.799356   1.000000
  445       -2.799342   1.000000
  446       -2.799298   1.000000
  447       -2.789755   1.000000
  448       -2.789740   1.000000
  449       -2.789729   1.000000
  450       -2.789716   1.000000
  451       -2.789706   1.000000
  452       -2.789702   1.000000
  453       -2.789696   1.000000
  454       -2.789687   1.000000
  455       -2.789669   1.000000
  456       -2.789662   1.000000
  457       -2.789644   1.000000
  458       -2.789641   1.000000
  459       -2.786172   1.000000
  460       -2.786155   1.000000
  461       -2.786113   1.000000
  462       -2.786074   1.000000
  463       -2.786018   1.000000
  464       -2.785976   1.000000
  465       -2.748698   1.000000
  466       -2.748681   1.000000
  467       -2.748537   1.000000
  468       -2.748529   1.000000
  469       -2.698725   1.000000
  470       -2.698718   1.000000
  471       -2.698697   1.000000
  472       -2.698687   1.000000
  473       -2.698668   1.000000
  474       -2.698649   1.000000
  475       -2.695415   1.000000
  476       -2.695376   1.000000
  477       -2.693217   1.000000
  478       -2.693207   1.000000
  479       -2.693162   1.000000
  480       -2.693147   1.000000
  481       -2.693130   1.000000
  482       -2.693120   1.000000
  483       -2.692647   1.000000
  484       -2.692625   1.000000
  485       -2.692532   1.000000
  486       -2.692521   1.000000
  487       -2.692504   1.000000
  488       -2.692498   1.000000
  489       -2.687001   1.000000
  490       -2.686982   1.000000
  491       -2.686970   1.000000
  492       -2.686953   1.000000
  493       -2.686946   1.000000
  494       -2.686939   1.000000
  495       -2.686928   1.000000
  496       -2.686924   1.000000
  497       -2.686911   1.000000
  498       -2.686910   1.000000
  499       -2.686897   1.000000
  500       -2.686890   1.000000
  501       -2.634797   1.000000
  502       -2.634794   1.000000
  503       -2.634731   1.000000
  504       -2.634699   1.000000
  505       -2.634616   1.000000
  506       -2.634391   1.000000
  507       -2.626801   1.000000
  508       -2.626789   1.000000
  509       -2.626755   1.000000
  510       -2.626749   1.000000
  511       -2.626742   1.000000
  512       -2.626734   1.000000
  513       -2.600944   1.000000
  514       -2.600943   1.000000
  515       -2.600855   1.000000
  516       -2.600852   1.000000
  517       -2.590737   1.000000
  518       -2.572623   1.000000
  519       -2.572605   1.000000
  520       -2.572547   1.000000
  521       -2.572532   1.000000
  522       -2.572485   1.000000
  523       -2.572384   1.000000
  524       -2.551484   1.000000
  525       -2.527974   1.000000
  526       -2.527924   1.000000
  527       -2.527901   1.000000
  528       -2.527889   1.000000
  529       -2.527885   1.000000
  530       -2.527877   1.000000
  531       -2.527840   1.000000
  532       -2.527830   1.000000
  533       -2.527812   1.000000
  534       -2.527800   1.000000
  535       -2.527788   1.000000
  536       -2.527766   1.000000
  537       -2.511050   1.000000
  538       -2.511033   1.000000
  539       -2.510983   1.000000
  540       -2.510935   1.000000
  541       -2.510870   1.000000
  542       -2.510667   1.000000
  543       -2.484752   1.000000
  544       -2.484749   1.000000
  545       -2.484606   1.000000
  546       -2.469753   1.000000
  547       -2.469737   1.000000
  548       -2.469668   1.000000
  549       -2.469615   1.000000
  550       -2.469516   1.000000
  551       -2.469176   1.000000
  552       -2.456142   1.000000
  553       -2.456118   1.000000
  554       -2.456092   1.000000
  555       -2.456075   1.000000
  556       -2.456071   1.000000
  557       -2.456053   1.000000
  558       -2.456042   1.000000
  559       -2.456038   1.000000
  560       -2.456020   1.000000
  561       -2.456016   1.000000
  562       -2.456016   1.000000
  563       -2.455998   1.000000
  564       -2.447063   1.000000
  565       -2.447019   1.000000
  566       -2.446984   1.000000
  567       -2.446919   1.000000
  568       -2.446898   1.000000
  569       -2.446731   1.000000
  570       -2.446170   1.000000
  571       -2.446092   1.000000
  572       -2.446086   1.000000
  573       -2.395573   1.000000
  574       -2.395532   1.000000
  575       -2.395510   1.000000
  576       -2.395492   1.000000
  577       -2.395424   1.000000
  578       -2.395410   1.000000
  579       -2.394117   1.000000
  580       -2.393949   1.000000
  581       -2.392508   1.000000
  582       -2.392289   1.000000
  583       -2.380800   1.000000
  584       -2.380784   1.000000
  585       -2.380767   1.000000
  586       -2.380728   1.000000
  587       -2.380644   1.000000
  588       -2.380580   1.000000
  589       -2.362878   1.000000
  590       -2.352316   1.000000
  591       -2.352303   1.000000
  592       -2.352289   1.000000
  593       -2.352286   1.000000
  594       -2.352277   1.000000
  595       -2.352239   1.000000
  596       -2.338951   1.000000
  597       -2.338936   1.000000
  598       -2.338929   1.000000
  599       -2.338920   1.000000
  600       -2.338874   1.000000
  601       -2.338870   1.000000
  602       -2.333781   1.000000
  603       -2.333776   1.000000
  604       -2.333602   1.000000
  605       -2.320004   1.000000
  606       -2.319990   1.000000
  607       -2.319918   1.000000
  608       -2.319915   1.000000
  609       -2.319905   1.000000
  610       -2.319903   1.000000
  611       -2.304439   1.000000
  612       -2.304219   1.000000
  613       -2.279635   1.000000
  614       -2.279609   1.000000
  615       -2.279575   1.000000
  616       -2.275534   1.000000
  617       -2.275489   1.000000
  618       -2.275465   1.000000
  619       -2.275440   1.000000
  620       -2.275379   1.000000
  621       -2.275367   1.000000
  622       -2.275052   1.000000
  623       -2.259650   1.000000
  624       -2.259470   1.000000
  625       -2.245098   1.000000
  626       -2.245090   1.000000
  627       -2.244997   1.000000
  628       -2.244993   1.000000
  629       -2.244987   1.000000
  630       -2.244972   1.000000
  631       -2.238517   1.000000
  632       -2.238506   1.000000
  633       -2.238491   1.000000
  634       -2.221487   1.000000
  635       -2.221476   1.000000
  636       -2.221460   1.000000
  637       -2.221449   1.000000
  638       -2.221330   1.000000
  639       -2.221309   1.000000
  640       -2.210311   1.000000
  641       -2.210221   1.000000
  642       -2.210215   1.000000
  643       -2.197755   1.000000
  644       -2.197535   1.000000
  645       -2.197404   1.000000
  646       -2.197394   1.000000
  647       -2.196778   1.000000
  648       -2.196750   1.000000
  649       -2.193279   1.000000
  650       -2.193266   1.000000
  651       -2.193238   1.000000
  652       -2.193233   1.000000
  653       -2.193223   1.000000
  654       -2.193212   1.000000
  655       -2.193207   1.000000
  656       -2.193198   1.000000
  657       -2.193188   1.000000
  658       -2.193163   1.000000
  659       -2.193152   1.000000
  660       -2.193139   1.000000
  661       -2.184021   1.000000
  662       -2.183985   1.000000
  663       -2.183940   1.000000
  664       -2.183931   1.000000
  665       -2.183846   1.000000
  666       -2.183828   1.000000
  667       -2.178582   1.000000
  668       -2.178503   1.000000
  669       -2.178495   1.000000
  670       -2.178478   1.000000
  671       -2.178389   1.000000
  672       -2.178365   1.000000
  673       -2.132113   1.000000
  674       -2.132086   1.000000
  675       -2.132066   1.000000
  676       -2.132034   1.000000
  677       -2.131929   1.000000
  678       -2.131895   1.000000
  679       -2.126530   1.000000
  680       -2.110084   1.000000
  681       -2.110032   1.000000
  682       -2.109977   1.000000
  683       -2.109961   1.000000
  684       -2.109952   1.000000
  685       -2.109933   1.000000
  686       -2.085548   1.000000
  687       -2.085541   1.000000
  688       -2.084713   1.000000
  689       -2.084671   1.000000
  690       -2.080388   1.000000
  691       -2.080379   1.000000
  692       -2.080355   1.000000
  693       -2.080317   1.000000
  694       -2.080298   1.000000
  695       -2.080285   1.000000
  696       -2.080249   1.000000
  697       -2.080232   1.000000
  698       -2.080200   1.000000
  699       -2.080181   1.000000
  700       -2.080134   1.000000
  701       -2.080125   1.000000
  702       -2.074670   1.000000
  703       -2.074463   1.000000
  704       -2.065987   1.000000
  705       -2.065962   1.000000
  706       -2.065894   1.000000
  707       -2.065886   1.000000
  708       -2.065867   1.000000
  709       -2.065858   1.000000
  710       -2.065829   1.000000
  711       -2.065821   1.000000
  712       -2.065808   1.000000
  713       -2.065802   1.000000
  714       -2.065756   1.000000
  715       -2.065746   1.000000
  716       -2.062745   1.000000
  717       -2.062528   1.000000
  718       -2.040055   1.000000
  719       -2.040050   1.000000
  720       -2.039907   1.000000
  721       -2.039895   1.000000
  722       -2.039891   1.000000
  723       -2.039876   1.000000
  724       -2.015952   1.000000
  725       -2.015890   1.000000
  726       -2.015861   1.000000
  727       -2.015846   1.000000
  728       -2.015786   1.000000
  729       -2.015709   1.000000
  730       -1.994055   1.000000
  731       -1.994042   1.000000
  732       -1.994011   1.000000
  733       -1.994005   1.000000
  734       -1.993971   1.000000
  735       -1.993960   1.000000
  736       -1.993944   1.000000
  737       -1.993930   1.000000
  738       -1.993861   1.000000
  739       -1.993829   1.000000
  740       -1.993805   1.000000
  741       -1.993705   1.000000
  742       -1.950424   1.000000
  743       -1.950411   1.000000
  744       -1.950283   1.000000
  745       -1.950254   1.000000
  746       -1.950251   1.000000
  747       -1.950231   1.000000
  748       -1.943160   1.000000
  749       -1.943135   1.000000
  750       -1.943128   1.000000
  751       -1.943034   1.000000
  752       -1.943033   1.000000
  753       -1.942825   1.000000
  754       -1.895061   1.000000
  755       -1.895058   1.000000
  756       -1.895046   1.000000
  757       -1.895033   1.000000
  758       -1.895030   1.000000
  759       -1.895008   1.000000
  760       -1.894997   1.000000
  761       -1.894967   1.000000
  762       -1.894907   1.000000
  763       -1.894906   1.000000
  764       -1.894868   1.000000
  765       -1.894826   1.000000
  766       -1.891158   1.000000
  767       -1.891139   1.000000
  768       -1.891099   1.000000
  769       -1.891091   1.000000
  770       -1.891078   1.000000
  771       -1.891000   1.000000
  772       -1.884575   1.000000
  773       -1.884563   1.000000
  774       -1.884507   1.000000
  775       -1.884505   1.000000
  776       -1.884486   1.000000
  777       -1.884424   1.000000
  778       -1.852668   1.000000
  779       -1.852588   1.000000
  780       -1.852566   1.000000
  781       -1.848826   1.000000
  782       -1.848818   1.000000
  783       -1.848700   1.000000
  784       -1.848688   1.000000
  785       -1.848672   1.000000
  786       -1.848651   1.000000
  787       -1.828857   1.000000
  788       -1.828826   1.000000
  789       -1.828810   1.000000
  790       -1.828757   1.000000
  791       -1.828734   1.000000
  792       -1.828456   1.000000
  793       -1.823922   1.000000
  794       -1.823901   1.000000
  795       -1.823788   1.000000
  796       -1.823772   1.000000
  797       -1.823752   1.000000
  798       -1.823745   1.000000
  799       -1.803226   1.000000
  800       -1.803195   1.000000
  801       -1.803144   1.000000
  802       -1.803112   1.000000
  803       -1.803107   1.000000
  804       -1.803059   1.000000
  805       -1.794964   1.000000
  806       -1.794946   1.000000
  807       -1.794925   1.000000
  808       -1.794920   1.000000
  809       -1.794893   1.000000
  810       -1.794838   1.000000
  811       -1.794816   1.000000
  812       -1.794793   1.000000
  813       -1.794719   1.000000
  814       -1.794690   1.000000
  815       -1.794674   1.000000
  816       -1.794606   1.000000
  817       -1.755916   1.000000
  818       -1.755911   1.000000
  819       -1.755869   1.000000
  820       -1.755852   1.000000
  821       -1.755831   1.000000
  822       -1.755798   1.000000
  823       -1.755772   1.000000
  824       -1.755734   1.000000
  825       -1.755678   1.000000
  826       -1.755645   1.000000
  827       -1.755617   1.000000
  828       -1.755561   1.000000
  829       -1.722306   1.000000
  830       -1.722272   1.000000
  831       -1.722149   1.000000
  832       -1.722146   1.000000
  833       -1.722121   1.000000
  834       -1.722108   1.000000
  835       -1.721018   1.000000
  836       -1.720969   1.000000
  837       -1.720949   1.000000
  838       -1.716965   1.000000
  839       -1.716950   1.000000
  840       -1.716946   1.000000
  841       -1.716931   1.000000
  842       -1.716918   1.000000
  843       -1.716887   1.000000
  844       -1.705529   1.000000
  845       -1.705483   1.000000
  846       -1.705434   1.000000
  847       -1.705414   1.000000
  848       -1.705375   1.000000
  849       -1.705349   1.000000
  850       -1.696284   1.000000
  851       -1.696176   1.000000
  852       -1.696105   1.000000
  853       -1.695771   1.000000
  854       -1.695655   1.000000
  855       -1.694540   1.000000
  856       -1.692017   1.000000
  857       -1.691972   1.000000
  858       -1.691945   1.000000
  859       -1.691875   1.000000
  860       -1.691809   1.000000
  861       -1.691423   1.000000
  862       -1.672248   1.000000
  863       -1.672187   1.000000
  864       -1.672160   1.000000
  865       -1.637849   1.000000
  866       -1.637712   1.000000
  867       -1.637703   1.000000
  868       -1.637687   1.000000
  869       -1.637614   1.000000
  870       -1.637512   1.000000
  871       -1.606977   1.000000
  872       -1.606933   1.000000
  873       -1.606920   1.000000
  874       -1.606914   1.000000
  875       -1.606902   1.000000
  876       -1.606883   1.000000
  877       -1.606875   1.000000
  878       -1.606870   1.000000
  879       -1.606857   1.000000
  880       -1.606842   1.000000
  881       -1.606829   1.000000
  882       -1.606797   1.000000
  883       -1.596279   1.000000
  884       -1.585598   1.000000
  885       -1.585345   1.000000
  886       -1.585300   1.000000
  887       -1.584618   1.000000
  888       -1.584383   1.000000
  889       -1.581248   1.000000
  890       -1.534704   1.000000
  891       -1.534697   1.000000
  892       -1.534579   1.000000
  893       -1.534572   1.000000
  894       -1.534567   1.000000
  895       -1.534558   1.000000
  896       -1.480043   1.000000
  897       -1.479954   1.000000
  898       -1.479904   1.000000
  899       -1.479882   1.000000
  900       -1.479826   1.000000
  901       -1.479764   1.000000