   2   2   0   0
  0.1524313E+04  0.1450000E-08  0.1450000E-08  0.1450000E-08  0.5000000E-15
   1.0000000000000000E-004
  CAR 
 NiAl                                    
      2.62318836    -50.79976831  301     -0.89253264      1.00000000
    -50.800  0.0000E+00  0.0000E+00
    -50.622  0.0000E+00  0.0000E+00
    -50.444  0.0000E+00  0.0000E+00
    -50.266  0.0000E+00  0.0000E+00
    -50.087  0.0000E+00  0.0000E+00
    -49.909  0.0000E+00  0.0000E+00
    -49.731  0.0000E+00  0.0000E+00
    -49.553  0.0000E+00  0.0000E+00
    -49.375  0.0000E+00  0.0000E+00
    -49.197  0.0000E+00  0.0000E+00
    -49.019  0.0000E+00  0.0000E+00
    -48.841  0.0000E+00  0.0000E+00
    -48.663  0.1247E-14  0.2220E-15
    -48.485  0.7579E-02  0.1350E-02
    -48.307  0.1085E+02  0.1933E+01
    -48.129  0.3763E+00  0.2000E+01
    -47.951  0.0000E+00  0.2000E+01
    -47.772  0.0000E+00  0.2000E+01
    -47.594  0.0000E+00  0.2000E+01
    -47.416  0.0000E+00  0.2000E+01
    -47.238  0.0000E+00  0.2000E+01
    -47.060  0.0000E+00  0.2000E+01
    -46.882  0.0000E+00  0.2000E+01
    -46.704  0.0000E+00  0.2000E+01
    -46.526  0.0000E+00  0.2000E+01
    -46.348  0.0000E+00  0.2000E+01
    -46.170  0.0000E+00  0.2000E+01
    -45.992  0.0000E+00  0.2000E+01
    -45.814  0.0000E+00  0.2000E+01
    -45.636  0.0000E+00  0.2000E+01
    -45.457  0.0000E+00  0.2000E+01
    -45.279  0.0000E+00  0.2000E+01
    -45.101  0.0000E+00  0.2000E+01
    -44.923  0.0000E+00  0.2000E+01
    -44.745  0.0000E+00  0.2000E+01
    -44.567  0.0000E+00  0.2000E+01
    -44.389  0.0000E+00  0.2000E+01
    -44.211  0.0000E+00  0.2000E+01
    -44.033  0.0000E+00  0.2000E+01
    -43.855  0.0000E+00  0.2000E+01
    -43.677  0.0000E+00  0.2000E+01
    -43.499  0.0000E+00  0.2000E+01
    -43.321  0.0000E+00  0.2000E+01
    -43.142  0.0000E+00  0.2000E+01
    -42.964  0.0000E+00  0.2000E+01
    -42.786  0.0000E+00  0.2000E+01
    -42.608  0.0000E+00  0.2000E+01
    -42.430  0.0000E+00  0.2000E+01
    -42.252  0.0000E+00  0.2000E+01
    -42.074  0.0000E+00  0.2000E+01
    -41.896  0.0000E+00  0.2000E+01
    -41.718  0.0000E+00  0.2000E+01
    -41.540  0.0000E+00  0.2000E+01
    -41.362  0.0000E+00  0.2000E+01
    -41.184  0.0000E+00  0.2000E+01
    -41.006  0.0000E+00  0.2000E+01
    -40.827  0.0000E+00  0.2000E+01
    -40.649  0.0000E+00  0.2000E+01
    -40.471  0.0000E+00  0.2000E+01
    -40.293  0.0000E+00  0.2000E+01
    -40.115  0.0000E+00  0.2000E+01
    -39.937  0.0000E+00  0.2000E+01
    -39.759  0.0000E+00  0.2000E+01
    -39.581  0.0000E+00  0.2000E+01
    -39.403  0.0000E+00  0.2000E+01
    -39.225  0.0000E+00  0.2000E+01
    -39.047  0.0000E+00  0.2000E+01
    -38.869  0.0000E+00  0.2000E+01
    -38.691  0.0000E+00  0.2000E+01
    -38.512  0.0000E+00  0.2000E+01
    -38.334  0.0000E+00  0.2000E+01
    -38.156  0.0000E+00  0.2000E+01
    -37.978  0.0000E+00  0.2000E+01
    -37.800  0.0000E+00  0.2000E+01
    -37.622  0.0000E+00  0.2000E+01
    -37.444  0.0000E+00  0.2000E+01
    -37.266  0.0000E+00  0.2000E+01
    -37.088  0.0000E+00  0.2000E+01
    -36.910  0.0000E+00  0.2000E+01
    -36.732  0.0000E+00  0.2000E+01
    -36.554  0.0000E+00  0.2000E+01
    -36.376  0.0000E+00  0.2000E+01
    -36.197  0.0000E+00  0.2000E+01
    -36.019  0.0000E+00  0.2000E+01
    -35.841  0.0000E+00  0.2000E+01
    -35.663  0.0000E+00  0.2000E+01
    -35.485  0.0000E+00  0.2000E+01
    -35.307  0.0000E+00  0.2000E+01
    -35.129  0.0000E+00  0.2000E+01
    -34.951  0.0000E+00  0.2000E+01
    -34.773  0.0000E+00  0.2000E+01
    -34.595  0.0000E+00  0.2000E+01
    -34.417  0.0000E+00  0.2000E+01
    -34.239  0.0000E+00  0.2000E+01
    -34.061  0.0000E+00  0.2000E+01
    -33.882  0.0000E+00  0.2000E+01
    -33.704  0.0000E+00  0.2000E+01
    -33.526  0.0000E+00  0.2000E+01
    -33.348  0.0000E+00  0.2000E+01
    -33.170  0.0000E+00  0.2000E+01
    -32.992  0.0000E+00  0.2000E+01
    -32.814  0.0000E+00  0.2000E+01
    -32.636  0.0000E+00  0.2000E+01
    -32.458  0.0000E+00  0.2000E+01
    -32.280  0.0000E+00  0.2000E+01
    -32.102  0.0000E+00  0.2000E+01
    -31.924  0.0000E+00  0.2000E+01
    -31.746  0.0000E+00  0.2000E+01
    -31.568  0.0000E+00  0.2000E+01
    -31.389  0.0000E+00  0.2000E+01
    -31.211  0.0000E+00  0.2000E+01
    -31.033  0.0000E+00  0.2000E+01
    -30.855  0.0000E+00  0.2000E+01
    -30.677  0.0000E+00  0.2000E+01
    -30.499  0.0000E+00  0.2000E+01
    -30.321  0.0000E+00  0.2000E+01
    -30.143  0.0000E+00  0.2000E+01
    -29.965  0.0000E+00  0.2000E+01
    -29.787  0.0000E+00  0.2000E+01
    -29.609  0.0000E+00  0.2000E+01
    -29.431  0.0000E+00  0.2000E+01
    -29.253  0.0000E+00  0.2000E+01
    -29.074  0.0000E+00  0.2000E+01
    -28.896  0.0000E+00  0.2000E+01
    -28.718  0.0000E+00  0.2000E+01
    -28.540  0.0000E+00  0.2000E+01
    -28.362  0.0000E+00  0.2000E+01
    -28.184  0.0000E+00  0.2000E+01
    -28.006  0.0000E+00  0.2000E+01
    -27.828  0.0000E+00  0.2000E+01
    -27.650  0.0000E+00  0.2000E+01
    -27.472  0.0000E+00  0.2000E+01
    -27.294  0.0000E+00  0.2000E+01
    -27.116  0.0000E+00  0.2000E+01
    -26.938  0.0000E+00  0.2000E+01
    -26.759  0.0000E+00  0.2000E+01
    -26.581  0.0000E+00  0.2000E+01
    -26.403  0.0000E+00  0.2000E+01
    -26.225  0.0000E+00  0.2000E+01
    -26.047  0.0000E+00  0.2000E+01
    -25.869  0.0000E+00  0.2000E+01
    -25.691  0.0000E+00  0.2000E+01
    -25.513  0.0000E+00  0.2000E+01
    -25.335  0.0000E+00  0.2000E+01
    -25.157  0.0000E+00  0.2000E+01
    -24.979  0.0000E+00  0.2000E+01
    -24.801  0.0000E+00  0.2000E+01
    -24.623  0.0000E+00  0.2000E+01
    -24.444  0.0000E+00  0.2000E+01
    -24.266  0.0000E+00  0.2000E+01
    -24.088  0.0000E+00  0.2000E+01
    -23.910  0.0000E+00  0.2000E+01
    -23.732  0.0000E+00  0.2000E+01
    -23.554  0.0000E+00  0.2000E+01
    -23.376  0.0000E+00  0.2000E+01
    -23.198  0.0000E+00  0.2000E+01
    -23.020  0.0000E+00  0.2000E+01
    -22.842  0.0000E+00  0.2000E+01
    -22.664  0.4485E-11  0.2000E+01
    -22.486  0.2975E+00  0.2053E+01
    -22.308  0.2211E+02  0.5990E+01
    -22.129  0.5432E-01  0.6000E+01
    -21.951  0.0000E+00  0.6000E+01
    -21.773  0.0000E+00  0.6000E+01
    -21.595  0.0000E+00  0.6000E+01
    -21.417  0.0000E+00  0.6000E+01
    -21.239  0.0000E+00  0.6000E+01
    -21.061  0.0000E+00  0.6000E+01
    -20.883  0.0000E+00  0.6000E+01
    -20.705  0.0000E+00  0.6000E+01
    -20.527  0.0000E+00  0.6000E+01
    -20.349  0.0000E+00  0.6000E+01
    -20.171  0.0000E+00  0.6000E+01
    -19.993  0.0000E+00  0.6000E+01
    -19.814  0.0000E+00  0.6000E+01
    -19.636  0.0000E+00  0.6000E+01
    -19.458  0.0000E+00  0.6000E+01
    -19.280  0.0000E+00  0.6000E+01
    -19.102  0.0000E+00  0.6000E+01
    -18.924  0.0000E+00  0.6000E+01
    -18.746  0.0000E+00  0.6000E+01
    -18.568  0.0000E+00  0.6000E+01
    -18.390  0.0000E+00  0.6000E+01
    -18.212  0.0000E+00  0.6000E+01
    -18.034  0.0000E+00  0.6000E+01
    -17.856  0.2979E-08  0.6000E+01
    -17.678  0.1352E+01  0.6241E+01
    -17.499  0.9878E+01  0.8000E+01
    -17.321  0.6271E-03  0.8000E+01
    -17.143  0.0000E+00  0.8000E+01
    -16.965  0.0000E+00  0.8000E+01
    -16.787  0.0000E+00  0.8000E+01
    -16.609  0.0000E+00  0.8000E+01
    -16.431  0.0000E+00  0.8000E+01
    -16.253  0.0000E+00  0.8000E+01
    -16.075  0.0000E+00  0.8000E+01
    -15.897  0.0000E+00  0.8000E+01
    -15.719  0.4221E-02  0.8001E+01
    -15.541  0.1069E+02  0.9904E+01
    -15.363  0.5366E+00  0.1000E+02
    -15.184  0.0000E+00  0.1000E+02
    -15.006  0.0000E+00  0.1000E+02
    -14.828  0.0000E+00  0.1000E+02
    -14.650  0.0000E+00  0.1000E+02
    -14.472  0.0000E+00  0.1000E+02
    -14.294  0.0000E+00  0.1000E+02
    -14.116  0.0000E+00  0.1000E+02
    -13.938  0.0000E+00  0.1000E+02
    -13.760  0.0000E+00  0.1000E+02
    -13.582  0.0000E+00  0.1000E+02
    -13.404  0.0000E+00  0.1000E+02
    -13.226  0.0000E+00  0.1000E+02
    -13.048  0.0000E+00  0.1000E+02
    -12.869  0.0000E+00  0.1000E+02
    -12.691  0.0000E+00  0.1000E+02
    -12.513  0.0000E+00  0.1000E+02
    -12.335  0.0000E+00  0.1000E+02
    -12.157  0.0000E+00  0.1000E+02
    -11.979  0.0000E+00  0.1000E+02
    -11.801  0.0000E+00  0.1000E+02
    -11.623  0.0000E+00  0.1000E+02
    -11.445  0.0000E+00  0.1000E+02
    -11.267  0.0000E+00  0.1000E+02
    -11.089  0.0000E+00  0.1000E+02
    -10.911  0.0000E+00  0.1000E+02
    -10.733  0.0000E+00  0.1000E+02
    -10.554  0.0000E+00  0.1000E+02
    -10.376  0.0000E+00  0.1000E+02
    -10.198  0.0000E+00  0.1000E+02
    -10.020  0.0000E+00  0.1000E+02
     -9.842  0.0000E+00  0.1000E+02
     -9.664  0.0000E+00  0.1000E+02
     -9.486  0.0000E+00  0.1000E+02
     -9.308  0.0000E+00  0.1000E+02
     -9.130  0.0000E+00  0.1000E+02
     -8.952  0.0000E+00  0.1000E+02
     -8.774  0.0000E+00  0.1000E+02
     -8.596  0.0000E+00  0.1000E+02
     -8.418  0.0000E+00  0.1000E+02
     -8.239  0.0000E+00  0.1000E+02
     -8.061  0.0000E+00  0.1000E+02
     -7.883  0.0000E+00  0.1000E+02
     -7.705  0.0000E+00  0.1000E+02
     -7.527  0.0000E+00  0.1000E+02
     -7.349  0.0000E+00  0.1000E+02
     -7.171  0.0000E+00  0.1000E+02
     -6.993  0.0000E+00  0.1000E+02
     -6.815  0.0000E+00  0.1000E+02
     -6.637  0.0000E+00  0.1000E+02
     -6.459  0.0000E+00  0.1000E+02
     -6.281  0.0000E+00  0.1000E+02
     -6.103  0.0000E+00  0.1000E+02
     -5.924  0.0000E+00  0.1000E+02
     -5.746  0.0000E+00  0.1000E+02
     -5.568  0.0000E+00  0.1000E+02
     -5.390  0.0000E+00  0.1000E+02
     -5.212  0.0000E+00  0.1000E+02
     -5.034  0.0000E+00  0.1000E+02
     -4.856  0.0000E+00  0.1000E+02
     -4.678  0.0000E+00  0.1000E+02
     -4.500  0.0000E+00  0.1000E+02
     -4.322  0.0000E+00  0.1000E+02
     -4.144  0.0000E+00  0.1000E+02
     -3.966  0.0000E+00  0.1000E+02
     -3.788  0.0000E+00  0.1000E+02
     -3.609  0.0000E+00  0.1000E+02
     -3.431  0.0000E+00  0.1000E+02
     -3.253  0.0000E+00  0.1000E+02
     -3.075  0.0000E+00  0.1000E+02
     -2.897  0.0000E+00  0.1000E+02
     -2.719  0.0000E+00  0.1000E+02
     -2.541  0.0000E+00  0.1000E+02
     -2.363  0.0000E+00  0.1000E+02
     -2.185  0.0000E+00  0.1000E+02
     -2.007  0.0000E+00  0.1000E+02
     -1.829  0.0000E+00  0.1000E+02
     -1.651  0.0000E+00  0.1000E+02
     -1.473  0.0000E+00  0.1000E+02
     -1.294  0.0000E+00  0.1000E+02
     -1.116  0.2710E-08  0.1000E+02
     -0.938  0.2191E+01  0.1039E+02
     -0.760  0.2027E+02  0.1400E+02
     -0.582  0.8281E+01  0.1547E+02
     -0.404  0.2952E+01  0.1600E+02
     -0.226  0.7950E-07  0.1600E+02
     -0.048  0.2314E-02  0.1600E+02
      0.130  0.2635E+02  0.2069E+02
      0.308  0.1857E+02  0.2400E+02
      0.486  0.7582E-02  0.2400E+02
      0.664  0.0000E+00  0.2400E+02
      0.842  0.0000E+00  0.2400E+02
      1.020  0.0000E+00  0.2400E+02
      1.199  0.0000E+00  0.2400E+02
      1.377  0.0000E+00  0.2400E+02
      1.555  0.0000E+00  0.2400E+02
      1.733  0.0000E+00  0.2400E+02
      1.911  0.0000E+00  0.2400E+02
      2.089  0.0000E+00  0.2400E+02
      2.267  0.0000E+00  0.2400E+02
      2.445  0.0000E+00  0.2400E+02
      2.623  0.0000E+00  0.2400E+02
