    2    2    1    1
  0.1524313E+04  0.1450000E-08  0.1450000E-08  0.1450000E-08  0.5000000E-15
   1.0000000000000000E-004
  CAR 
 NiAl                                    
     12      1     12
 
  0.1262379E-14  0.1262379E-14  0.1262379E-14  0.1000000E+01
      1        -48.371452   1.000000
      2        -22.407147   1.000000
      3        -22.407147   1.000000
      4        -17.636062   1.000000
      5        -15.599545   1.000000
      6         -0.892533   0.500000
      7         -0.892533   0.500000
      8         -0.604629   0.000000
      9          0.083272   0.000000
     10          0.083272   0.000000
     11          0.130301   0.000000
     12          0.194872   0.000000
