       N       E                     dE             d eps       ncg     rms          rms(c)
DAV:   1     0.110565710721E+03    0.11057E+03   -0.27580E+03    48   0.347E+02
DAV:   2     0.294399008826E+02   -0.81126E+02   -0.81126E+02    24   0.158E+02
DAV:   3     0.248278724586E+02   -0.46120E+01   -0.46120E+01    24   0.490E+01
DAV:   4     0.204465698266E+02   -0.43813E+01   -0.43813E+01    48   0.508E+00
DAV:   5     0.197795948854E+02   -0.66697E+00   -0.61999E+00    36   0.529E+00    0.202E+02
DAV:   6     0.223778743775E+02    0.25983E+01   -0.69865E+00    36   0.287E+01    0.114E+02
DAV:   7     0.215475275078E+02   -0.83035E+00   -0.81992E+00    48   0.176E+01    0.131E+01
DAV:   8     0.197704320015E+02   -0.17771E+01   -0.23565E+00    48   0.552E+00    0.138E+01
DAV:   9     0.225154745542E+02    0.27450E+01   -0.43951E+01    36   0.167E+01    0.468E+00
DAV:  10     0.224155380997E+02   -0.99936E-01   -0.47125E-01    36   0.247E+00    0.320E+00
DAV:  11     0.224970486208E+02    0.81511E-01   -0.53831E-02    24   0.138E+00    0.249E+00
DAV:  12     0.226062347386E+02    0.10919E+00   -0.13546E-01    24   0.240E+00    0.148E+00
DAV:  13     0.226177187421E+02    0.11484E-01   -0.25202E-02    36   0.620E-01    0.130E+00
DAV:  14     0.226398468383E+02    0.22128E-01   -0.22642E-02    24   0.705E-01    0.102E+00
DAV:  15     0.226561097298E+02    0.16263E-01   -0.32415E-02    24   0.832E-01    0.675E-01
DAV:  16     0.226649736042E+02    0.88639E-02   -0.15968E-02    24   0.402E-01    0.533E-01
DAV:  17     0.226727137008E+02    0.77401E-02   -0.14884E-02    24   0.779E-01    0.304E-01
DAV:  18     0.226761694569E+02    0.34558E-02   -0.14301E-02    24   0.474E-01    0.155E-01
DAV:  19     0.226750820255E+02   -0.10874E-02   -0.92079E-03    24   0.349E-01    0.986E-02
DAV:  20     0.226729754250E+02   -0.21066E-02   -0.55263E-03    24   0.209E-01    0.933E-02
DAV:  21     0.226719396201E+02   -0.10358E-02   -0.68364E-03    24   0.231E-01    0.497E-02
DAV:  22     0.226713146352E+02   -0.62498E-03   -0.51608E-03    24   0.251E-01    0.358E-02
DAV:  23     0.226707816034E+02   -0.53303E-03   -0.24125E-03    24   0.157E-01    0.398E-02
DAV:  24     0.226702259760E+02   -0.55563E-03   -0.32885E-03    36   0.142E-01    0.510E-02
DAV:  25     0.226702397457E+02    0.13770E-04   -0.19207E-04    24   0.595E-02    0.424E-02
DAV:  26     0.226702478802E+02    0.81344E-05   -0.70690E-05    24   0.411E-02    0.301E-02
DAV:  27     0.226702640568E+02    0.16177E-04   -0.34867E-05    24   0.265E-02    0.199E-02
DAV:  28     0.226702666716E+02    0.26148E-05   -0.54674E-05    24   0.354E-02    0.793E-03
DAV:  29     0.226701638846E+02   -0.10279E-03   -0.81438E-05    24   0.204E-02    0.484E-03
DAV:  30     0.226701436257E+02   -0.20259E-04   -0.32087E-05    24   0.263E-02    0.353E-03
DAV:  31     0.226701318448E+02   -0.11781E-04   -0.13865E-05    24   0.104E-02    0.213E-03
DAV:  32     0.226701264951E+02   -0.53497E-05   -0.48098E-06    24   0.984E-03    0.354E-03
DAV:  33     0.226701258114E+02   -0.68367E-06   -0.25905E-06    48   0.502E-03    0.225E-03
DAV:  34     0.226342471945E+02   -0.35879E-01   -0.11843E-04    48   0.457E-03    0.556E-02
DAV:  35     0.226162250875E+02   -0.18022E-01   -0.15598E-01    48   0.621E-01    0.101E-01
DAV:  36     0.226141545733E+02   -0.20705E-02   -0.22309E-02    48   0.217E-01    0.191E-02
DAV:  37     0.226137954538E+02   -0.35912E-03   -0.26992E-03    36   0.135E-01    0.232E-03
DAV:  38     0.226137463403E+02   -0.49114E-04   -0.43943E-04    24   0.262E-02    0.572E-03
DAV:  39     0.226137087030E+02   -0.37637E-04   -0.33342E-04    48   0.253E-02    0.107E-02
DAV:  40     0.226137036851E+02   -0.50179E-05   -0.18982E-05    24   0.909E-03    0.112E-02
DAV:  41     0.226137036568E+02   -0.28333E-07   -0.17661E-06    24   0.551E-03    0.947E-03
DAV:  42     0.226137044104E+02    0.75357E-06   -0.14807E-06    24   0.660E-03    0.656E-03
DAV:  43     0.226137056298E+02    0.12194E-05   -0.92522E-07    24   0.477E-03    0.480E-03
DAV:  44     0.226137064035E+02    0.77374E-06   -0.84552E-07    36   0.384E-03    0.271E-03
DAV:  45     0.226137070273E+02    0.62372E-06   -0.23599E-07    24   0.230E-03    0.190E-03
DAV:  46     0.226137072255E+02    0.19826E-06   -0.21478E-07    36   0.171E-03    0.101E-03
DAV:  47     0.226137081432E+02    0.91763E-06   -0.44947E-08    36   0.658E-04    0.964E-04
DAV:  48     0.226137081037E+02   -0.39438E-07   -0.13668E-08    36   0.284E-04
   1 F= 0.22606415E+02 E0= 0.22634624E+02  d E =-.564190E-01
