 vasp.6.3.1 04May22 (build Jun 29 2022 13:52:15) complex                         
 executed on              LinuxNV date 2022.10.06  09:56:45
 running    6 mpi-ranks, with   12 threads/rank
 distrk:  each k-point on    6 cores,    1 groups
 distr:  one band on NCORE=   1 cores,    6 groups


--------------------------------------------------------------------------------------------------------


 INCAR:
   SYSTEM = NiAl
   ISTART = 0
   EDIFF = 1E-7
   NELMIN = 6
   IVDW = 12
   LWAVE = .FALSE.
   LCHARG = .FALSE.
   LREAL = Auto
   NCORE = 1
   LPLANE = .TRUE.
   ENCUT = 360.00 eV
   ISMEAR = 0
   SIGMA = 0.05

 POTCAR:    PAW O_GW 19Mar2012                    
 POTCAR:    PAW O_GW 19Mar2012                    
   VRHFIN =O: s2p4                                                                                  
   LEXCH  = PE                                                                                      
   EATOM  =   432.3788 eV,   31.7789 Ry                                                             
                                                                                                    
   TITEL  = PAW O_GW 19Mar2012                                                                      
   LULTRA =        F    use ultrasoft PP ?                                                          
   IUNSCR =        1    unscreen: 0-lin 1-nonlin 2-no                                               
   RPACOR =    0.800    partial core radius                                                         
   POMASS =   16.000; ZVAL   =    6.000    mass and valenz                                          
   RCORE  =    1.600    outmost cutoff radius                                                       
   RWIGS  =    1.600; RWIGS  =    0.847    wigner-seitz radius (au A)                               
   ENMAX  =  434.431; ENMIN  =  325.824 eV                                                          
   ICORE  =        3    local potential                                                             
   LCOR   =        T    correct aug charges                                                         
   LPAW   =        T    paw PP                                                                      
   EAUG   = 1139.609                                                                                
   DEXC   =    0.000                                                                                
   RMAX   =    1.629    core radius for proj-oper                                                   
   RAUG   =    1.300    factor for augmentation sphere                                              
   RDEP   =    1.652    radius for radial grids                                                     
   RDEPT  =    1.200    core radius for aug-charge                                                  
                                                                                                    
   Atomic configuration                                                                             
    5 entries                                                                                       
     n  l   j            E        occ.                                                              
     1  0  0.50      -514.6923   2.0000                                                             
     2  0  0.50       -23.9615   2.0000                                                             
     2  1  0.50        -9.0305   4.0000                                                             
     3  2  1.50        -9.5241   0.0000                                                             
     4  3  2.50        -9.5241   0.0000                                                             
   Description                                                                                      
     l       E           TYP  RCUT    TYP  RCUT                                                     
     0    -23.9615316     23  1.150                                                                 
     0    -25.3221142     23  1.150                                                                 
     0    244.9048680     23  1.300                                                                 
     1     -9.0304908     23  1.500                                                                 
     1     -6.9258396     23  1.500                                                                 
     1    122.4524340     23  1.500                                                                 
     2     13.6058260     23  1.500                                                                 
     2    190.4815640     23  1.600                                                                 
     3     54.4233040     23  1.400                                                                 
  local pseudopotential read in
  partial core-charges read in
  partial kinetic energy density read in
  kinetic energy density of atom read in
  atomic valenz-charges read in
  non local Contribution for L=            0  read in
    real space projection operators read in
  non local Contribution for L=            0  read in
    real space projection operators read in
  non local Contribution for L=            0  read in
    real space projection operators read in
  non local Contribution for L=            1  read in
    real space projection operators read in
  non local Contribution for L=            1  read in
    real space projection operators read in
  non local Contribution for L=            1  read in
    real space projection operators read in
  non local Contribution for L=            2  read in
    real space projection operators read in
  non local Contribution for L=            2  read in
    real space projection operators read in
    PAW grid and wavefunctions read in
 
   number of l-projection  operators is LMAX  =            8
   number of lm-projection operators is LMMAX =           22
 
 -----------------------------------------------------------------------------
|                                                                             |
|               ----> ADVICE to this user running VASP <----                  |
|                                                                             |
|     You have a (more or less) 'small supercell' and for smaller cells       |
|     it is recommended to use the reciprocal-space projection scheme!        |
|     The real-space optimization is not efficient for small cells and it     |
|     is also less accurate ...                                               |
|     Therefore, set LREAL=.FALSE. in the INCAR file.                         |
|                                                                             |
 -----------------------------------------------------------------------------

 Optimization of the real space projectors (new method)

 maximal supplied QI-value         = 23.62
 optimisation between [QCUT,QGAM] = [  9.68, 19.37] = [ 26.27,105.06] Ry 
 Optimized for a Real-space Cutoff    2.14 Angstroem

   l    n(q)    QCUT    max X(q) W(low)/X(q) W(high)/X(q)  e(spline) 
   0     13     9.685   116.464    0.15E-03    0.15E-03    0.47E-05
   0     13     9.685   116.329    0.15E-03    0.15E-03    0.46E-05
   0     13     9.685     0.942    0.20E-04    0.50E-04    0.17E-05
   1     12     9.685    29.046    0.36E-03    0.11E-02    0.25E-04
   1     12     9.685    24.247    0.38E-03    0.11E-02    0.26E-04
   1     12     9.685     2.381    0.13E-03    0.38E-03    0.78E-05
   2     12     9.685     2.237    0.60E-05    0.28E-04    0.14E-05
   2     12     9.685     1.850    0.17E-04    0.70E-04    0.25E-05
  PAW O_GW 19Mar2012                    :
 energy of atom  1       EATOM= -432.3788
 kinetic energy error for atom=    0.3913 (will be added to EATOM!!)
 
 
 POSCAR:  O
  positions in cartesian coordinates
  No initial velocities read in
 exchange correlation table for  LEXCH =        8
   RHO(1)=    0.500       N(1)  =     2000
   RHO(2)=  100.500       N(2)  =     4000
 


--------------------------------------------------------------------------------------------------------


 ion  position               nearest neighbor table
   1  0.000  0.000  0.000-   2 0.75
   2  0.052  0.000  0.000-   1 0.75
 
 -----------------------------------------------------------------------------
|                                                                             |
|           W    W    AA    RRRRR   N    N  II  N    N   GGGG   !!!           |
|           W    W   A  A   R    R  NN   N  II  NN   N  G    G  !!!           |
|           W    W  A    A  R    R  N N  N  II  N N  N  G       !!!           |
|           W WW W  AAAAAA  RRRRR   N  N N  II  N  N N  G  GGG   !            |
|           WW  WW  A    A  R   R   N   NN  II  N   NN  G    G                |
|           W    W  A    A  R    R  N    N  II  N    N   GGGG   !!!           |
|                                                                             |
|     The distance between some ions is very small. Please check the          |
|     nearest-neighbor list in the OUTCAR file.                               |
|     I HOPE YOU KNOW WHAT YOU ARE DOING!                                     |
|                                                                             |
 -----------------------------------------------------------------------------

  LATTYP: Found a simple cubic cell.
 ALAT       =    14.5000000000
  
  Lattice vectors:
  
 A1 = (  14.5000000000,   0.0000000000,   0.0000000000)
 A2 = (   0.0000000000,  14.5000000000,   0.0000000000)
 A3 = (   0.0000000000,   0.0000000000,  14.5000000000)


Analysis of symmetry for initial positions (statically):
=====================================================================
 Subroutine PRICEL returns:
 Original cell was already a primitive cell.
 

 Routine SETGRP: Setting up the symmetry group for a 
 simple cubic supercell.


 Subroutine GETGRP returns: Found 16 space group operations
 (whereof  8 operations were pure point group operations)
 out of a pool of 48 trial point group operations.


The static configuration has the point symmetry C_4v.
 The point group associated with its full space group is D_4h.


Analysis of symmetry for dynamics (positions and initial velocities):
=====================================================================
 Subroutine PRICEL returns:
 Original cell was already a primitive cell.
 

 Routine SETGRP: Setting up the symmetry group for a 
 simple cubic supercell.


 Subroutine GETGRP returns: Found 16 space group operations
 (whereof  8 operations were pure point group operations)
 out of a pool of 48 trial point group operations.


The dynamic configuration has the point symmetry C_4v.
 The point group associated with its full space group is D_4h.


 Subroutine INISYM returns: Found 16 space group operations
 (whereof  8 operations are pure point group operations),
 and found     1 'primitive' translations


----------------------------------------------------------------------------------------

                                     Primitive cell                                     

  volume of cell :    3048.6250

  direct lattice vectors                    reciprocal lattice vectors
    14.500000000  0.000000000  0.000000000     0.068965517  0.000000000  0.000000000
     0.000000000 14.500000000  0.000000000     0.000000000  0.068965517  0.000000000
     0.000000000  0.000000000 14.500000000     0.000000000  0.000000000  0.068965517

  length of vectors
    14.500000000 14.500000000 14.500000000     0.068965517  0.068965517  0.068965517

  position of ions in fractional coordinates (direct lattice)
     0.000000000  0.000000000  0.000000000
     0.051724138  0.000000000  0.000000000

  ion indices of the primitive-cell ions
   primitive index   ion index
                 1           1
                 2           2

----------------------------------------------------------------------------------------

 
 
 KPOINTS: Automatic generation                    

Automatic generation of k-mesh.
 Grid dimensions read from file:
 generate k-points for:    1    1    1

 Generating k-lattice:

  Cartesian coordinates                     Fractional coordinates (reciprocal lattice)
     0.068965517  0.000000000  0.000000000     1.000000000  0.000000000  0.000000000
     0.000000000  0.068965517  0.000000000     0.000000000  1.000000000  0.000000000
     0.000000000  0.000000000  0.068965517     0.000000000  0.000000000  1.000000000

  Length of vectors
     0.068965517  0.068965517  0.068965517

  Shift w.r.t. Gamma in fractional coordinates (k-lattice)
     0.000000000  0.000000000  0.000000000

 
 Subroutine IBZKPT returns following result:
 ===========================================
 
 Found      1 irreducible k-points:
 
 Following reciprocal coordinates:
            Coordinates               Weight
  0.000000  0.000000  0.000000      1.000000
 
 Following cartesian coordinates:
            Coordinates               Weight
  0.000000  0.000000  0.000000      1.000000
 


--------------------------------------------------------------------------------------------------------




 Dimension of arrays:
   k-points           NKPTS =      1   k-points in BZ     NKDIM =      1   number of bands    NBANDS=     12
   number of dos      NEDOS =    301   number of ions     NIONS =      2
   non local maximal  LDIM  =      8   non local SUM 2l+1 LMDIM =     22
   total plane-waves  NPLWV = 343000
   max r-space proj   IRMAX =   4649   max aug-charges    IRDMAX=   1404
   dimension x,y,z NGX =    70 NGY =   70 NGZ =   70
   dimension x,y,z NGXF=   140 NGYF=  140 NGZF=  140
   support grid    NGXF=   140 NGYF=  140 NGZF=  140
   ions per type =               2
   NGX,Y,Z   is equivalent  to a cutoff of   8.03,  8.03,  8.03 a.u.
   NGXF,Y,Z  is equivalent  to a cutoff of  16.05, 16.05, 16.05 a.u.

 SYSTEM =  NiAl                                    
 POSCAR =   O                                      

 Startparameter for this run:
   NWRITE =      2    write-flag & timer
   PREC   = normal    normal or accurate (medium, high low for compatibility)
   ISTART =      0    job   : 0-new  1-cont  2-samecut
   ICHARG =      2    charge: 1-file 2-atom 10-const
   ISPIN  =      1    spin polarized calculation?
   LNONCOLLINEAR =      F non collinear calculations
   LSORBIT =      F    spin-orbit coupling
   INIWAV =      1    electr: 0-lowe 1-rand  2-diag
   LASPH  =      F    aspherical Exc in radial PAW
 Electronic Relaxation 1
   ENCUT  =  360.0 eV  26.46 Ry    5.14 a.u.  22.43 22.43 22.43*2*pi/ulx,y,z
   ENINI  =  360.0     initial cutoff
   ENAUG  = 1139.6 eV  augmentation charge cutoff
   NELM   =     60;   NELMIN=  6; NELMDL= -5     # of ELM steps 
   EDIFF  = 0.1E-06   stopping-criterion for ELM
   LREAL  =      T    real-space projection
   NLSPLINE    = F    spline interpolate recip. space projectors
   LCOMPAT=      F    compatible to vasp.4.4
   GGA_COMPAT  = T    GGA compatible to vasp.4.4-vasp.4.6
   LMAXPAW     = -100 max onsite density
   LMAXMIX     =    2 max onsite mixed and CHGCAR
   VOSKOWN=      0    Vosko Wilk Nusair interpolation
   ROPT   =   -0.00050
 Ionic relaxation
   EDIFFG = 0.1E-05   stopping-criterion for IOM
   NSW    =      0    number of steps for IOM
   NBLOCK =      1;   KBLOCK =      1    inner block; outer block 
   IBRION =     -1    ionic relax: 0-MD 1-quasi-New 2-CG
   NFREE  =      0    steps in history (QN), initial steepest desc. (CG)
   ISIF   =      2    stress and relaxation
   IWAVPR =     10    prediction:  0-non 1-charg 2-wave 3-comb
   ISYM   =      2    0-nonsym 1-usesym 2-fastsym
   LCORR  =      T    Harris-Foulkes like correction to forces

   POTIM  = 0.5000    time-step for ionic-motion
   TEIN   =    0.0    initial temperature
   TEBEG  =    0.0;   TEEND  =   0.0 temperature during run
   SMASS  =  -3.00    Nose mass-parameter (am)
   estimated Nose-frequenzy (Omega)   =  0.10E-29 period in steps = 0.13E+47 mass=  -0.480E-26a.u.
   SCALEE = 1.0000    scale energy and forces
   NPACO  =    256;   APACO  = 10.0  distance and # of slots for P.C.
   PSTRESS=    0.0 pullay stress

  Mass of Ions in am
   POMASS =  16.00
  Ionic Valenz
   ZVAL   =   6.00
  Atomic Wigner-Seitz radii
   RWIGS  =  -1.00
  virtual crystal weights 
   VCA    =   1.00
   NELECT =      12.0000    total number of electrons
   NUPDOWN=      -1.0000    fix difference up-down

 DOS related values:
   EMIN   =  10.00;   EMAX   =-10.00  energy-range for DOS
   EFERMI =   0.00
   ISMEAR =     0;   SIGMA  =   0.05  broadening in eV -4-tet -1-fermi 0-gaus

 Electronic relaxation 2 (details)
   IALGO  =     38    algorithm
   LDIAG  =      T    sub-space diagonalisation (order eigenvalues)
   LSUBROT=      F    optimize rotation matrix (better conditioning)
   TURBO    =      0    0=normal 1=particle mesh
   IRESTART =      0    0=no restart 2=restart with 2 vectors
   NREBOOT  =      0    no. of reboots
   NMIN     =      0    reboot dimension
   EREF     =   0.00    reference energy to select bands
   IMIX   =      4    mixing-type and parameters
     AMIX     =   0.40;   BMIX     =  1.00
     AMIX_MAG =   1.60;   BMIX_MAG =  1.00
     AMIN     =   0.10
     WC   =   100.;   INIMIX=   1;  MIXPRE=   1;  MAXMIX= -45

 Intra band minimization:
   WEIMIN = 0.0000     energy-eigenvalue tresh-hold
   EBREAK =  0.21E-08  absolut break condition
   DEPER  =   0.30     relativ break condition  

   TIME   =   0.40     timestep for ELM

  volume/ion in A,a.u.               =    1524.31     10286.57
  Fermi-wavevector in a.u.,A,eV,Ry     =   0.258484  0.488464  0.909060  0.066814
  Thomas-Fermi vector in A             =   1.084104
 
 Write flags
   LWAVE        =      F    write WAVECAR
   LDOWNSAMPLE  =      F    k-point downsampling of WAVECAR
   LCHARG       =      F    write CHGCAR
   LVTOT        =      F    write LOCPOT, total local potential
   LVHAR        =      F    write LOCPOT, Hartree potential only
   LELF         =      F    write electronic localiz. function (ELF)
   LORBIT       =      0    0 simple, 1 ext, 2 COOP (PROOUT), +10 PAW based schemes


 Dipole corrections
   LMONO  =      F    monopole corrections only (constant potential shift)
   LDIPOL =      F    correct potential (dipole corrections)
   IDIPOL =      0    1-x, 2-y, 3-z, 4-all directions 
   EPSILON=  1.0000000 bulk dielectric constant

 Exchange correlation treatment:
   GGA     =    --    GGA type
   LEXCH   =     8    internal setting for exchange type
   LIBXC   =     F    Libxc                    
   VOSKOWN =     0    Vosko Wilk Nusair interpolation
   LHFCALC =     F    Hartree Fock is set to
   LHFONE  =     F    Hartree Fock one center treatment
   AEXX    =    0.0000 exact exchange contribution

 Linear response parameters
   LEPSILON=     F    determine dielectric tensor
   LRPA    =     F    only Hartree local field effects (RPA)
   LNABLA  =     F    use nabla operator in PAW spheres
   LVEL    =     F    velocity operator in full k-point grid
   CSHIFT  =0.1000    complex shift for real part using Kramers Kronig
   OMEGAMAX=  -1.0    maximum frequency
   DEG_THRESHOLD= 0.2000000E-02 threshold for treating states as degnerate
   RTIME   =   -0.100 relaxation time in fs
  (WPLASMAI=    0.000 imaginary part of plasma frequency in eV, 0.658/RTIME)
   DFIELD  = 0.0000000 0.0000000 0.0000000 field for delta impulse in time
 
  Optional k-point grid parameters
   LKPOINTS_OPT  =     F    use optional k-point grid
   KPOINTS_OPT_MODE=     1    mode for optional k-point grid
 
 Orbital magnetization related:
   ORBITALMAG=     F  switch on orbital magnetization
   LCHIMAG   =     F  perturbation theory with respect to B field
   DQ        =  0.001000  dq finite difference perturbation B field
   LLRAUG    =     F  two centre corrections for induced B field



--------------------------------------------------------------------------------------------------------


 Static calculation
 charge density and potential will be updated during run
 non-spin polarized calculation
 Variant of blocked Davidson
 Davidson routine will perform the subspace rotation
 perform sub-space diagonalisation
    after iterative eigenvector-optimisation
 modified Broyden-mixing scheme, WC =      100.0
 initial mixing is a Kerker type mixing with AMIX =  0.4000 and BMIX =      1.0000
 Hartree-type preconditioning will be used
 using additional bands             6
 real space projection scheme for non local part
 use partial core corrections
 calculate Harris-corrections to forces 
   (improved forces if not selfconsistent)
 use gradient corrections 
 use of overlap-Matrix (Vanderbilt PP)
 Gauss-broadening in eV      SIGMA  =   0.05


--------------------------------------------------------------------------------------------------------


  energy-cutoff  :      360.00
  volume of cell :     3048.63
      direct lattice vectors                 reciprocal lattice vectors
    14.500000000  0.000000000  0.000000000     0.068965517  0.000000000  0.000000000
     0.000000000 14.500000000  0.000000000     0.000000000  0.068965517  0.000000000
     0.000000000  0.000000000 14.500000000     0.000000000  0.000000000  0.068965517

  length of vectors
    14.500000000 14.500000000 14.500000000     0.068965517  0.068965517  0.068965517


 
 k-points in units of 2pi/SCALE and weight: Automatic generation                    
   0.00000000  0.00000000  0.00000000       1.000
 
 k-points in reciprocal lattice and weights: Automatic generation                    
   0.00000000  0.00000000  0.00000000       1.000
 
 position of ions in fractional coordinates (direct lattice) 
   0.00000000  0.00000000  0.00000000
   0.05172414  0.00000000  0.00000000
 
 position of ions in cartesian coordinates  (Angst):
   0.00000000  0.00000000  0.00000000
   0.75000000  0.00000000  0.00000000
 


--------------------------------------------------------------------------------------------------------


 k-point   1 :   0.0000 0.0000 0.0000  plane waves:   47257

 maximum and minimum number of plane-waves per node :     47257    47257

 maximum number of plane-waves:     47257
 maximum index in each direction: 
   IXMAX=   22   IYMAX=   22   IZMAX=   22
   IXMIN=  -22   IYMIN=  -22   IZMIN=  -22


 serial   3D FFT for wavefunctions
 parallel 3D FFT for charge:
    minimum data exchange during FFTs selected (reduces bandwidth)


 total amount of memory used by VASP MPI-rank0    87953. kBytes
=======================================================================

   base      :      30000. kBytes
   nonlr-proj:       2512. kBytes
   fftplans  :      17290. kBytes
   grid      :      36592. kBytes
   one-center:         46. kBytes
   wavefun   :       1513. kBytes
 
     INWAV:  cpu time      0.0002: real time      0.0000
 Broyden mixing: mesh for mixing (old mesh)
   NGX = 45   NGY = 45   NGZ = 45
  (NGX  =140   NGY  =140   NGZ  =140)
  gives a total of  91125 points

 initial charge density was supplied:
 charge density of overlapping atoms calculated
 number of electron      12.0000000 magnetization 
 keeping initial charge density in first step


--------------------------------------------------------------------------------------------------------


 Maximum index for non-local projection operator           498
 Maximum index for augmentation-charges           279 (set IRDMAX)


--------------------------------------------------------------------------------------------------------


 First call to EWALD:  gamma=   0.122
 Maximum number of real-space cells 3x 3x 3
 Maximum number of reciprocal cells 3x 3x 3

    FEWALD:  cpu time      0.3309: real time      0.1057


--------------------------------------- Iteration      1(   1)  ---------------------------------------


    POTLOK:  cpu time      3.1256: real time      1.7096
    SETDIJ:  cpu time      0.3516: real time      0.1719
     EDDAV:  cpu time     10.1745: real time      4.7054
       DOS:  cpu time      0.0009: real time      0.0004
    --------------------------------------------
      LOOP:  cpu time     13.6541: real time      6.5880

 eigenvalue-minimisations  :    48
 total energy-change (2. order) : 0.1105657E+03  (-0.2758018E+03)
 number of electron      12.0000000 magnetization 
 augmentation part       12.0000000 magnetization 

 Free energy of the ion-electron system (eV)
  ---------------------------------------------------
  alpha Z        PSCENC =         0.08965302
  Ewald energy   TEWEN  =       488.51734606
  -Hartree energ DENC   =     -1101.71701850
  -exchange      EXHF   =         0.00000000
  -V(xc)+E(xc)   XCENC  =        55.06330771
  PAW double counting   =       698.30301748     -696.69629178
  entropy T*S    EENTRO =        -0.00000000
  eigenvalues    EBANDS =      -196.96932442
  atomic energy  EATOM  =       863.97502114
  Solvation  Ediel_sol  =         0.00000000
  ---------------------------------------------------
  free energy    TOTEN  =       110.56571072 eV

  energy without entropy =      110.56571072  energy(sigma->0) =      110.56571072


--------------------------------------------------------------------------------------------------------




--------------------------------------- Iteration      1(   2)  ---------------------------------------


     EDDAV:  cpu time      5.2995: real time      2.7003
       DOS:  cpu time      0.0004: real time      0.0004
    --------------------------------------------
      LOOP:  cpu time      5.2984: real time      2.6999

 eigenvalue-minimisations  :    24
 total energy-change (2. order) :-0.8112581E+02  (-0.8112581E+02)
 number of electron      12.0000000 magnetization 
 augmentation part       12.0000000 magnetization 

 Free energy of the ion-electron system (eV)
  ---------------------------------------------------
  alpha Z        PSCENC =         0.08965302
  Ewald energy   TEWEN  =       488.51734606
  -Hartree energ DENC   =     -1101.71701850
  -exchange      EXHF   =         0.00000000
  -V(xc)+E(xc)   XCENC  =        55.06330771
  PAW double counting   =       698.30301748     -696.69629178
  entropy T*S    EENTRO =        -0.00000000
  eigenvalues    EBANDS =      -278.09513426
  atomic energy  EATOM  =       863.97502114
  Solvation  Ediel_sol  =         0.00000000
  ---------------------------------------------------
  free energy    TOTEN  =        29.43990088 eV

  energy without entropy =       29.43990088  energy(sigma->0) =       29.43990088


--------------------------------------------------------------------------------------------------------




--------------------------------------- Iteration      1(   3)  ---------------------------------------


     EDDAV:  cpu time      5.7370: real time      2.8302
       DOS:  cpu time      0.0003: real time      0.0002
    --------------------------------------------
      LOOP:  cpu time      5.7373: real time      2.8304

 eigenvalue-minimisations  :    24
 total energy-change (2. order) :-0.4612028E+01  (-0.4612028E+01)
 number of electron      12.0000000 magnetization 
 augmentation part       12.0000000 magnetization 

 Free energy of the ion-electron system (eV)
  ---------------------------------------------------
  alpha Z        PSCENC =         0.08965302
  Ewald energy   TEWEN  =       488.51734606
  -Hartree energ DENC   =     -1101.71701850
  -exchange      EXHF   =         0.00000000
  -V(xc)+E(xc)   XCENC  =        55.06330771
  PAW double counting   =       698.30301748     -696.69629178
  entropy T*S    EENTRO =        -0.00000000
  eigenvalues    EBANDS =      -282.70716268
  atomic energy  EATOM  =       863.97502114
  Solvation  Ediel_sol  =         0.00000000
  ---------------------------------------------------
  free energy    TOTEN  =        24.82787246 eV

  energy without entropy =       24.82787246  energy(sigma->0) =       24.82787246


--------------------------------------------------------------------------------------------------------




--------------------------------------- Iteration      1(   4)  ---------------------------------------


     EDDAV:  cpu time      8.6636: real time      4.4520
       DOS:  cpu time      0.0005: real time      0.0005
    --------------------------------------------
      LOOP:  cpu time      8.6641: real time      4.4526

 eigenvalue-minimisations  :    48
 total energy-change (2. order) :-0.4381303E+01  (-0.4381301E+01)
 number of electron      12.0000000 magnetization 
 augmentation part       12.0000000 magnetization 

 Free energy of the ion-electron system (eV)
  ---------------------------------------------------
  alpha Z        PSCENC =         0.08965302
  Ewald energy   TEWEN  =       488.51734606
  -Hartree energ DENC   =     -1101.71701850
  -exchange      EXHF   =         0.00000000
  -V(xc)+E(xc)   XCENC  =        55.06330771
  PAW double counting   =       698.30301748     -696.69629178
  entropy T*S    EENTRO =        -0.00003641
  eigenvalues    EBANDS =      -287.08842891
  atomic energy  EATOM  =       863.97502114
  Solvation  Ediel_sol  =         0.00000000
  ---------------------------------------------------
  free energy    TOTEN  =        20.44656983 eV

  energy without entropy =       20.44660624  energy(sigma->0) =       20.44658803


--------------------------------------------------------------------------------------------------------




--------------------------------------- Iteration      1(   5)  ---------------------------------------


     EDDAV:  cpu time      7.7684: real time      3.7224
       DOS:  cpu time      0.0003: real time      0.0003
    CHARGE:  cpu time      1.2908: real time      0.6503
    MIXING:  cpu time      0.5165: real time      0.2456
    --------------------------------------------
      LOOP:  cpu time      9.5760: real time      4.6186

 eigenvalue-minimisations  :    36
 total energy-change (2. order) :-0.6669749E+00  (-0.6199862E+00)
 number of electron      12.0000057 magnetization 
 augmentation part        1.6860539 magnetization 

 Broyden mixing:
  rms(total) = 0.20191E+02    rms(broyden)= 0.20191E+02
  rms(prec ) = 0.20197E+02
  weight for this iteration     100.00

 Free energy of the ion-electron system (eV)
  ---------------------------------------------------
  alpha Z        PSCENC =         0.08965302
  Ewald energy   TEWEN  =       488.51734606
  -Hartree energ DENC   =     -1101.71701850
  -exchange      EXHF   =         0.00000000
  -V(xc)+E(xc)   XCENC  =        55.06330771
  PAW double counting   =       698.30301748     -696.69629178
  entropy T*S    EENTRO =        -0.05586281
  eigenvalues    EBANDS =      -287.69957745
  atomic energy  EATOM  =       863.97502114
  Solvation  Ediel_sol  =         0.00000000
  ---------------------------------------------------
  free energy    TOTEN  =        19.77959489 eV

  energy without entropy =       19.83545770  energy(sigma->0) =       19.80752629


--------------------------------------------------------------------------------------------------------




--------------------------------------- Iteration      1(   6)  ---------------------------------------


    POTLOK:  cpu time      4.1475: real time      1.8191
    SETDIJ:  cpu time      0.1257: real time      0.0908
     EDDAV:  cpu time      7.6232: real time      3.8789
       DOS:  cpu time      0.0006: real time      0.0006
    CHARGE:  cpu time      1.3504: real time      0.5871
    MIXING:  cpu time      0.5423: real time      0.2858
    --------------------------------------------
      LOOP:  cpu time     13.7897: real time      6.6621

 eigenvalue-minimisations  :    36
 total energy-change (2. order) : 0.2598279E+01  (-0.6986494E+00)
 number of electron      12.0000055 magnetization 
 augmentation part        1.5163100 magnetization 

 Broyden mixing:
  rms(total) = 0.11439E+02    rms(broyden)= 0.11438E+02
  rms(prec ) = 0.11440E+02
  weight for this iteration     100.00

 eigenvalues of (default mixing * dielectric matrix)
  average eigenvalue GAMMA=   2.3004
  2.3004

 Free energy of the ion-electron system (eV)
  ---------------------------------------------------
  alpha Z        PSCENC =         0.08965302
  Ewald energy   TEWEN  =       488.51734606
  -Hartree energ DENC   =     -1133.96503215
  -exchange      EXHF   =         0.00000000
  -V(xc)+E(xc)   XCENC  =        56.65804468
  PAW double counting   =      3679.19214913    -3677.91602627
  entropy T*S    EENTRO =        -0.05633727
  eigenvalues    EBANDS =      -254.11694397
  atomic energy  EATOM  =       863.97502114
  Solvation  Ediel_sol  =         0.00000000
  ---------------------------------------------------
  free energy    TOTEN  =        22.37787438 eV

  energy without entropy =       22.43421164  energy(sigma->0) =       22.40604301


--------------------------------------------------------------------------------------------------------




--------------------------------------- Iteration      1(   7)  ---------------------------------------


    POTLOK:  cpu time      3.3524: real time      1.7853
    SETDIJ:  cpu time      0.2962: real time      0.1575
     EDDAV:  cpu time      9.9312: real time      4.8163
       DOS:  cpu time      0.0002: real time      0.0002
    CHARGE:  cpu time      1.1564: real time      0.6004
    MIXING:  cpu time      0.4460: real time      0.2817
    --------------------------------------------
      LOOP:  cpu time     15.1824: real time      7.6414

 eigenvalue-minimisations  :    48
 total energy-change (2. order) :-0.8303469E+00  (-0.8199194E+00)
 number of electron      12.0000055 magnetization 
 augmentation part        1.0544767 magnetization 

 Broyden mixing:
  rms(total) = 0.13127E+01    rms(broyden)= 0.13086E+01
  rms(prec ) = 0.15961E+01
  weight for this iteration     100.00

 eigenvalues of (default mixing * dielectric matrix)
  average eigenvalue GAMMA=   1.2550
  2.2885  0.2214

 Free energy of the ion-electron system (eV)
  ---------------------------------------------------
  alpha Z        PSCENC =         0.08965302
  Ewald energy   TEWEN  =       488.51734606
  -Hartree energ DENC   =     -1148.22673434
  -exchange      EXHF   =         0.00000000
  -V(xc)+E(xc)   XCENC  =        57.43633565
  PAW double counting   =     11711.17929809   -11710.46376836
  entropy T*S    EENTRO =        -0.00000000
  eigenvalues    EBANDS =      -240.95962376
  atomic energy  EATOM  =       863.97502114
  Solvation  Ediel_sol  =         0.00000000
  ---------------------------------------------------
  free energy    TOTEN  =        21.54752751 eV

  energy without entropy =       21.54752751  energy(sigma->0) =       21.54752751


--------------------------------------------------------------------------------------------------------




--------------------------------------- Iteration      1(   8)  ---------------------------------------


    POTLOK:  cpu time      2.7731: real time      1.7149
    SETDIJ:  cpu time      0.2774: real time      0.1445
     EDDAV:  cpu time      8.8645: real time      4.4497
       DOS:  cpu time      0.0003: real time      0.0003
    CHARGE:  cpu time      1.0313: real time      0.5330
    MIXING:  cpu time      0.5391: real time      0.3180
    --------------------------------------------
      LOOP:  cpu time     13.4858: real time      7.1603

 eigenvalue-minimisations  :    48
 total energy-change (2. order) :-0.1777096E+01  (-0.2356537E+00)
 number of electron      12.0000055 magnetization 
 augmentation part        1.0343040 magnetization 

 Broyden mixing:
  rms(total) = 0.13770E+01    rms(broyden)= 0.13769E+01
  rms(prec ) = 0.17252E+01
  weight for this iteration     100.00

 eigenvalues of (default mixing * dielectric matrix)
  average eigenvalue GAMMA=   1.5010
  2.5094  0.9968  0.9968

 Free energy of the ion-electron system (eV)
  ---------------------------------------------------
  alpha Z        PSCENC =         0.08965302
  Ewald energy   TEWEN  =       488.51734606
  -Hartree energ DENC   =     -1163.04093989
  -exchange      EXHF   =         0.00000000
  -V(xc)+E(xc)   XCENC  =        58.14103620
  PAW double counting   =     11693.48304603   -11692.81467026
  entropy T*S    EENTRO =        -0.00000000
  eigenvalues    EBANDS =      -228.58006031
  atomic energy  EATOM  =       863.97502114
  Solvation  Ediel_sol  =         0.00000000
  ---------------------------------------------------
  free energy    TOTEN  =        19.77043200 eV

  energy without entropy =       19.77043200  energy(sigma->0) =       19.77043200


--------------------------------------------------------------------------------------------------------




--------------------------------------- Iteration      1(   9)  ---------------------------------------


    POTLOK:  cpu time      4.0149: real time      1.9916
    SETDIJ:  cpu time      0.4061: real time      0.1940
     EDDAV:  cpu time      7.0658: real time      3.5154
       DOS:  cpu time      0.0009: real time      0.0009
    CHARGE:  cpu time      1.1592: real time      0.6309
    MIXING:  cpu time      0.4741: real time      0.2703
    --------------------------------------------
      LOOP:  cpu time     13.1209: real time      6.6032

 eigenvalue-minimisations  :    36
 total energy-change (2. order) : 0.2745043E+01  (-0.4395132E+01)
 number of electron      12.0000054 magnetization 
 augmentation part        1.5313919 magnetization 

 Broyden mixing:
  rms(total) = 0.46799E+00    rms(broyden)= 0.45795E+00
  rms(prec ) = 0.50171E+00
  weight for this iteration     100.00

 eigenvalues of (default mixing * dielectric matrix)
  average eigenvalue GAMMA=   1.2101
  2.5539  0.8436  0.7213  0.7213

 Free energy of the ion-electron system (eV)
  ---------------------------------------------------
  alpha Z        PSCENC =         0.08965302
  Ewald energy   TEWEN  =       488.51734606
  -Hartree energ DENC   =     -1110.41318046
  -exchange      EXHF   =         0.00000000
  -V(xc)+E(xc)   XCENC  =        55.98458226
  PAW double counting   =     12531.31023462   -12530.40200035
  entropy T*S    EENTRO =        -0.00000000
  eigenvalues    EBANDS =      -276.54618174
  atomic energy  EATOM  =       863.97502114
  Solvation  Ediel_sol  =         0.00000000
  ---------------------------------------------------
  free energy    TOTEN  =        22.51547455 eV

  energy without entropy =       22.51547455  energy(sigma->0) =       22.51547455


--------------------------------------------------------------------------------------------------------




--------------------------------------- Iteration      1(  10)  ---------------------------------------


    POTLOK:  cpu time      3.3008: real time      1.9641
    SETDIJ:  cpu time      0.4703: real time      0.2296
     EDDAV:  cpu time      7.1780: real time      3.8019
       DOS:  cpu time      0.0004: real time      0.0004
    CHARGE:  cpu time      1.0404: real time      0.5868
    MIXING:  cpu time      0.6205: real time      0.3174
    --------------------------------------------
      LOOP:  cpu time     12.6105: real time      6.9002

 eigenvalue-minimisations  :    36
 total energy-change (2. order) :-0.9993645E-01  (-0.4712530E-01)
 number of electron      12.0000054 magnetization 
 augmentation part        1.5216203 magnetization 

 Broyden mixing:
  rms(total) = 0.32037E+00    rms(broyden)= 0.31989E+00
  rms(prec ) = 0.37390E+00
  weight for this iteration     100.00

 eigenvalues of (default mixing * dielectric matrix)
  average eigenvalue GAMMA=   1.3696
  2.6339  1.7880  0.7523  0.7523  0.9214

 Free energy of the ion-electron system (eV)
  ---------------------------------------------------
  alpha Z        PSCENC =         0.08965302
  Ewald energy   TEWEN  =       488.51734606
  -Hartree energ DENC   =     -1109.83636985
  -exchange      EXHF   =         0.00000000
  -V(xc)+E(xc)   XCENC  =        55.96594002
  PAW double counting   =     12789.01629227   -12788.15480048
  entropy T*S    EENTRO =        -0.00000000
  eigenvalues    EBANDS =      -277.15754409
  atomic energy  EATOM  =       863.97502114
  Solvation  Ediel_sol  =         0.00000000
  ---------------------------------------------------
  free energy    TOTEN  =        22.41553810 eV

  energy without entropy =       22.41553810  energy(sigma->0) =       22.41553810


--------------------------------------------------------------------------------------------------------




--------------------------------------- Iteration      1(  11)  ---------------------------------------


    POTLOK:  cpu time      3.6832: real time      1.6326
    SETDIJ:  cpu time      0.2479: real time      0.1283
     EDDAV:  cpu time      6.2329: real time      3.1078
       DOS:  cpu time      0.0014: real time      0.0014
    CHARGE:  cpu time      1.0432: real time      0.6626
    MIXING:  cpu time      0.4758: real time      0.3003
    --------------------------------------------
      LOOP:  cpu time     11.6844: real time      5.8331

 eigenvalue-minimisations  :    24
 total energy-change (2. order) : 0.8151052E-01  (-0.5383124E-02)
 number of electron      12.0000054 magnetization 
 augmentation part        1.5148093 magnetization 

 Broyden mixing:
  rms(total) = 0.24908E+00    rms(broyden)= 0.24906E+00
  rms(prec ) = 0.30031E+00
  weight for this iteration     100.00

 eigenvalues of (default mixing * dielectric matrix)
  average eigenvalue GAMMA=   1.3549
  2.5245  2.1691  0.7786  0.7786  0.9392  0.9392

 Free energy of the ion-electron system (eV)
  ---------------------------------------------------
  alpha Z        PSCENC =         0.08965302
  Ewald energy   TEWEN  =       488.51734606
  -Hartree energ DENC   =     -1111.64741090
  -exchange      EXHF   =         0.00000000
  -V(xc)+E(xc)   XCENC  =        56.09785656
  PAW double counting   =     12827.33115144   -12826.51253429
  entropy T*S    EENTRO =        -0.00000000
  eigenvalues    EBANDS =      -275.35403443
  atomic energy  EATOM  =       863.97502114
  Solvation  Ediel_sol  =         0.00000000
  ---------------------------------------------------
  free energy    TOTEN  =        22.49704862 eV

  energy without entropy =       22.49704862  energy(sigma->0) =       22.49704862


--------------------------------------------------------------------------------------------------------




--------------------------------------- Iteration      1(  12)  ---------------------------------------


    POTLOK:  cpu time      3.2834: real time      1.8953
    SETDIJ:  cpu time      0.2667: real time      0.1900
     EDDAV:  cpu time      5.3764: real time      2.7986
       DOS:  cpu time      0.0011: real time      0.0011
    CHARGE:  cpu time      1.1758: real time      0.6294
    MIXING:  cpu time      0.3827: real time      0.2485
    --------------------------------------------
      LOOP:  cpu time     10.4860: real time      5.7629

 eigenvalue-minimisations  :    24
 total energy-change (2. order) : 0.1091861E+00  (-0.1354616E-01)
 number of electron      12.0000054 magnetization 
 augmentation part        1.4970067 magnetization 

 Broyden mixing:
  rms(total) = 0.14810E+00    rms(broyden)= 0.14809E+00
  rms(prec ) = 0.18871E+00
  weight for this iteration     100.00

 eigenvalues of (default mixing * dielectric matrix)
  average eigenvalue GAMMA=   1.2048
  2.5097  2.1805  0.7745  0.7745  0.9616  0.9616  0.2714

 Free energy of the ion-electron system (eV)
  ---------------------------------------------------
  alpha Z        PSCENC =         0.08965302
  Ewald energy   TEWEN  =       488.51734606
  -Hartree energ DENC   =     -1117.37647649
  -exchange      EXHF   =         0.00000000
  -V(xc)+E(xc)   XCENC  =        56.36638135
  PAW double counting   =     12724.47254965   -12723.70070615
  entropy T*S    EENTRO =        -0.00000000
  eigenvalues    EBANDS =      -269.73753384
  atomic energy  EATOM  =       863.97502114
  Solvation  Ediel_sol  =         0.00000000
  ---------------------------------------------------
  free energy    TOTEN  =        22.60623474 eV

  energy without entropy =       22.60623474  energy(sigma->0) =       22.60623474


--------------------------------------------------------------------------------------------------------




--------------------------------------- Iteration      1(  13)  ---------------------------------------


    POTLOK:  cpu time      3.6451: real time      1.8742
    SETDIJ:  cpu time      0.2373: real time      0.1233
     EDDAV:  cpu time      7.7482: real time      3.8077
       DOS:  cpu time      0.0018: real time      0.0018
    CHARGE:  cpu time      1.4453: real time      0.6821
    MIXING:  cpu time      0.4425: real time      0.2730
    --------------------------------------------
      LOOP:  cpu time     13.5201: real time      6.7620

 eigenvalue-minimisations  :    36
 total energy-change (2. order) : 0.1148400E-01  (-0.2520244E-02)
 number of electron      12.0000054 magnetization 
 augmentation part        1.4916002 magnetization 

 Broyden mixing:
  rms(total) = 0.12987E+00    rms(broyden)= 0.12986E+00
  rms(prec ) = 0.16554E+00
  weight for this iteration     100.00

 eigenvalues of (default mixing * dielectric matrix)
  average eigenvalue GAMMA=   1.4419
  2.5783  1.9220  1.9220  1.8468  0.7657  0.7657  0.8673  0.8673

 Free energy of the ion-electron system (eV)
  ---------------------------------------------------
  alpha Z        PSCENC =         0.08965302
  Ewald energy   TEWEN  =       488.51734606
  -Hartree energ DENC   =     -1118.73076841
  -exchange      EXHF   =         0.00000000
  -V(xc)+E(xc)   XCENC  =        56.41868351
  PAW double counting   =     12720.81198520   -12720.05100531
  entropy T*S    EENTRO =        -0.00000000
  eigenvalues    EBANDS =      -268.41319647
  atomic energy  EATOM  =       863.97502114
  Solvation  Ediel_sol  =         0.00000000
  ---------------------------------------------------
  free energy    TOTEN  =        22.61771874 eV

  energy without entropy =       22.61771874  energy(sigma->0) =       22.61771874


--------------------------------------------------------------------------------------------------------




--------------------------------------- Iteration      1(  14)  ---------------------------------------


    POTLOK:  cpu time      3.5792: real time      1.8579
    SETDIJ:  cpu time      0.2569: real time      0.1228
     EDDAV:  cpu time      5.1882: real time      2.7143
       DOS:  cpu time      0.0005: real time      0.0005
    CHARGE:  cpu time      1.2722: real time      0.5871
    MIXING:  cpu time      0.4883: real time      0.2718
    --------------------------------------------
      LOOP:  cpu time     10.7853: real time      5.5543

 eigenvalue-minimisations  :    24
 total energy-change (2. order) : 0.2212810E-01  (-0.2264199E-02)
 number of electron      12.0000054 magnetization 
 augmentation part        1.4851798 magnetization 

 Broyden mixing:
  rms(total) = 0.10151E+00    rms(broyden)= 0.10151E+00
  rms(prec ) = 0.13016E+00
  weight for this iteration     100.00

 eigenvalues of (default mixing * dielectric matrix)
  average eigenvalue GAMMA=   1.6252
  2.9934  2.9934  2.4916  1.9294  0.7676  0.7676  1.2039  0.9137  0.5662

 Free energy of the ion-electron system (eV)
  ---------------------------------------------------
  alpha Z        PSCENC =         0.08965302
  Ewald energy   TEWEN  =       488.51734606
  -Hartree energ DENC   =     -1121.63974890
  -exchange      EXHF   =         0.00000000
  -V(xc)+E(xc)   XCENC  =        56.52765154
  PAW double counting   =     12687.34156016   -12686.59970877
  entropy T*S    EENTRO =        -0.00000000
  eigenvalues    EBANDS =      -265.57192742
  atomic energy  EATOM  =       863.97502114
  Solvation  Ediel_sol  =         0.00000000
  ---------------------------------------------------
  free energy    TOTEN  =        22.63984684 eV

  energy without entropy =       22.63984684  energy(sigma->0) =       22.63984684


--------------------------------------------------------------------------------------------------------




--------------------------------------- Iteration      1(  15)  ---------------------------------------


    POTLOK:  cpu time      3.4199: real time      1.8852
    SETDIJ:  cpu time      0.3352: real time      0.1982
     EDDAV:  cpu time      5.5747: real time      2.7836
       DOS:  cpu time      0.0008: real time      0.0008
    CHARGE:  cpu time      1.2289: real time      0.5990
    MIXING:  cpu time      0.4859: real time      0.2559
    --------------------------------------------
      LOOP:  cpu time     11.0453: real time      5.7227

 eigenvalue-minimisations  :    24
 total energy-change (2. order) : 0.1626289E-01  (-0.3241543E-02)
 number of electron      12.0000053 magnetization 
 augmentation part        1.4759174 magnetization 

 Broyden mixing:
  rms(total) = 0.67543E-01    rms(broyden)= 0.67522E-01
  rms(prec ) = 0.89675E-01
  weight for this iteration     100.00

 eigenvalues of (default mixing * dielectric matrix)
  average eigenvalue GAMMA=   1.7290
  3.7262  3.7262  2.3792  2.3792  0.7681  0.7681  1.1771  0.9374  0.7142  0.7142

 Free energy of the ion-electron system (eV)
  ---------------------------------------------------
  alpha Z        PSCENC =         0.08965302
  Ewald energy   TEWEN  =       488.51734606
  -Hartree energ DENC   =     -1124.41091932
  -exchange      EXHF   =         0.00000000
  -V(xc)+E(xc)   XCENC  =        56.62882680
  PAW double counting   =     12667.40535369   -12666.67674905
  entropy T*S    EENTRO =        -0.00000000
  eigenvalues    EBANDS =      -262.87242261
  atomic energy  EATOM  =       863.97502114
  Solvation  Ediel_sol  =         0.00000000
  ---------------------------------------------------
  free energy    TOTEN  =        22.65610973 eV

  energy without entropy =       22.65610973  energy(sigma->0) =       22.65610973


--------------------------------------------------------------------------------------------------------




--------------------------------------- Iteration      1(  16)  ---------------------------------------


    POTLOK:  cpu time      3.4701: real time      1.8597
    SETDIJ:  cpu time      0.2839: real time      0.1312
     EDDAV:  cpu time      6.0068: real time      3.0787
       DOS:  cpu time      0.0009: real time      0.0009
    CHARGE:  cpu time      1.3048: real time      0.5633
    MIXING:  cpu time      0.6169: real time      0.3144
    --------------------------------------------
      LOOP:  cpu time     11.6834: real time      5.9482

 eigenvalue-minimisations  :    24
 total energy-change (2. order) : 0.8863874E-02  (-0.1596827E-02)
 number of electron      12.0000053 magnetization 
 augmentation part        1.4721663 magnetization 

 Broyden mixing:
  rms(total) = 0.53333E-01    rms(broyden)= 0.53325E-01
  rms(prec ) = 0.68723E-01
  weight for this iteration     100.00

 eigenvalues of (default mixing * dielectric matrix)
  average eigenvalue GAMMA=   1.7380
  4.1515  4.1515  2.4436  2.2941  0.7681  0.7681  0.9673  0.9673  1.0403  0.9111
  0.6546

 Free energy of the ion-electron system (eV)
  ---------------------------------------------------
  alpha Z        PSCENC =         0.08965302
  Ewald energy   TEWEN  =       488.51734606
  -Hartree energ DENC   =     -1126.87367792
  -exchange      EXHF   =         0.00000000
  -V(xc)+E(xc)   XCENC  =        56.69916168
  PAW double counting   =     12644.41342080   -12643.68767459
  entropy T*S    EENTRO =        -0.00000000
  eigenvalues    EBANDS =      -260.46827658
  atomic energy  EATOM  =       863.97502114
  Solvation  Ediel_sol  =         0.00000000
  ---------------------------------------------------
  free energy    TOTEN  =        22.66497360 eV

  energy without entropy =       22.66497360  energy(sigma->0) =       22.66497360


--------------------------------------------------------------------------------------------------------




--------------------------------------- Iteration      1(  17)  ---------------------------------------


    POTLOK:  cpu time      3.9533: real time      1.9526
    SETDIJ:  cpu time      0.4109: real time      0.2105
     EDDAV:  cpu time      5.1990: real time      2.8230
       DOS:  cpu time      0.0011: real time      0.0011
    CHARGE:  cpu time      1.4430: real time      0.6248
    MIXING:  cpu time      0.6432: real time      0.2895
    --------------------------------------------
      LOOP:  cpu time     11.6505: real time      5.9015

 eigenvalue-minimisations  :    24
 total energy-change (2. order) : 0.7740097E-02  (-0.1488439E-02)
 number of electron      12.0000053 magnetization 
 augmentation part        1.4666306 magnetization 

 Broyden mixing:
  rms(total) = 0.30414E-01    rms(broyden)= 0.30399E-01
  rms(prec ) = 0.42887E-01
  weight for this iteration     100.00

 eigenvalues of (default mixing * dielectric matrix)
  average eigenvalue GAMMA=   1.7550
  4.3769  4.3769  2.5101  2.1685  0.7679  0.7679  1.4140  1.4140  1.0159  0.9195
  0.6642  0.6642

 Free energy of the ion-electron system (eV)
  ---------------------------------------------------
  alpha Z        PSCENC =         0.08965302
  Ewald energy   TEWEN  =       488.51734606
  -Hartree energ DENC   =     -1129.05649114
  -exchange      EXHF   =         0.00000000
  -V(xc)+E(xc)   XCENC  =        56.77376218
  PAW double counting   =     12639.26217737   -12638.54534848
  entropy T*S    EENTRO =        -0.00000002
  eigenvalues    EBANDS =      -258.34340643
  atomic energy  EATOM  =       863.97502114
  Solvation  Ediel_sol  =         0.00000000
  ---------------------------------------------------
  free energy    TOTEN  =        22.67271370 eV

  energy without entropy =       22.67271372  energy(sigma->0) =       22.67271371


--------------------------------------------------------------------------------------------------------




--------------------------------------- Iteration      1(  18)  ---------------------------------------


    POTLOK:  cpu time      3.4856: real time      1.8413
    SETDIJ:  cpu time      0.3170: real time      0.1844
     EDDAV:  cpu time      5.5863: real time      2.6595
       DOS:  cpu time      0.0003: real time      0.0003
    CHARGE:  cpu time      1.0637: real time      0.6114
    MIXING:  cpu time      0.5336: real time      0.2935
    --------------------------------------------
      LOOP:  cpu time     10.9865: real time      5.5904

 eigenvalue-minimisations  :    24
 total energy-change (2. order) : 0.3455756E-02  (-0.1430102E-02)
 number of electron      12.0000053 magnetization 
 augmentation part        1.4628159 magnetization 

 Broyden mixing:
  rms(total) = 0.15527E-01    rms(broyden)= 0.15509E-01
  rms(prec ) = 0.24800E-01
  weight for this iteration     100.00

 eigenvalues of (default mixing * dielectric matrix)
  average eigenvalue GAMMA=   1.8669
  5.2166  5.2166  2.5441  2.0931  1.8014  1.8014  0.7679  0.7679  1.0161  0.9004
  0.7312  0.7312  0.6820

 Free energy of the ion-electron system (eV)
  ---------------------------------------------------
  alpha Z        PSCENC =         0.08965302
  Ewald energy   TEWEN  =       488.51734606
  -Hartree energ DENC   =     -1130.73886467
  -exchange      EXHF   =         0.00000000
  -V(xc)+E(xc)   XCENC  =        56.83150028
  PAW double counting   =     12629.28470692   -12628.57632296
  entropy T*S    EENTRO =        -0.00000189
  eigenvalues    EBANDS =      -256.70686845
  atomic energy  EATOM  =       863.97502114
  Solvation  Ediel_sol  =         0.00000000
  ---------------------------------------------------
  free energy    TOTEN  =        22.67616946 eV

  energy without entropy =       22.67617134  energy(sigma->0) =       22.67617040


--------------------------------------------------------------------------------------------------------




--------------------------------------- Iteration      1(  19)  ---------------------------------------


    POTLOK:  cpu time      3.4539: real time      1.9800
    SETDIJ:  cpu time      0.4163: real time      0.1599
     EDDAV:  cpu time      5.1080: real time      2.4878
       DOS:  cpu time      0.0005: real time      0.0005
    CHARGE:  cpu time      1.2782: real time      0.5971
    MIXING:  cpu time      0.3901: real time      0.2391
    --------------------------------------------
      LOOP:  cpu time     10.6470: real time      5.4643

 eigenvalue-minimisations  :    24
 total energy-change (2. order) :-0.1087431E-02  (-0.9207861E-03)
 number of electron      12.0000053 magnetization 
 augmentation part        1.4605728 magnetization 

 Broyden mixing:
  rms(total) = 0.98625E-02    rms(broyden)= 0.98466E-02
  rms(prec ) = 0.16021E-01
  weight for this iteration     100.00

 eigenvalues of (default mixing * dielectric matrix)
  average eigenvalue GAMMA=   1.9215
  5.7410  5.7410  2.4931  2.2887  2.2887  0.7680  0.7680  1.1032  1.1032  1.2272
  1.1625  0.8817  0.6678  0.6678

 Free energy of the ion-electron system (eV)
  ---------------------------------------------------
  alpha Z        PSCENC =         0.08965302
  Ewald energy   TEWEN  =       488.51734606
  -Hartree energ DENC   =     -1131.82669184
  -exchange      EXHF   =         0.00000000
  -V(xc)+E(xc)   XCENC  =        56.85253917
  PAW double counting   =     12626.97063561   -12626.26456324
  entropy T*S    EENTRO =        -0.00001789
  eigenvalues    EBANDS =      -255.63884001
  atomic energy  EATOM  =       863.97502114
  Solvation  Ediel_sol  =         0.00000000
  ---------------------------------------------------
  free energy    TOTEN  =        22.67508203 eV

  energy without entropy =       22.67509992  energy(sigma->0) =       22.67509097


--------------------------------------------------------------------------------------------------------




--------------------------------------- Iteration      1(  20)  ---------------------------------------


    POTLOK:  cpu time      3.3551: real time      1.7921
    SETDIJ:  cpu time      0.3499: real time      0.2049
     EDDAV:  cpu time      5.1053: real time      2.4980
       DOS:  cpu time      0.0005: real time      0.0005
    CHARGE:  cpu time      1.0808: real time      0.5022
    MIXING:  cpu time      0.5365: real time      0.2429
    --------------------------------------------
      LOOP:  cpu time     10.4280: real time      5.2406

 eigenvalue-minimisations  :    24
 total energy-change (2. order) :-0.2106600E-02  (-0.5526253E-03)
 number of electron      12.0000053 magnetization 
 augmentation part        1.4600394 magnetization 

 Broyden mixing:
  rms(total) = 0.93308E-02    rms(broyden)= 0.93269E-02
  rms(prec ) = 0.14598E-01
  weight for this iteration     100.00

 eigenvalues of (default mixing * dielectric matrix)
  average eigenvalue GAMMA=   2.1896
  6.9955  6.9955  3.4139  2.2995  2.2995  2.1509  2.1509  0.7680  0.7680  1.0992
  0.9139  0.9139  0.7361  0.7361  0.6038

 Free energy of the ion-electron system (eV)
  ---------------------------------------------------
  alpha Z        PSCENC =         0.08965302
  Ewald energy   TEWEN  =       488.51734606
  -Hartree energ DENC   =     -1131.80579555
  -exchange      EXHF   =         0.00000000
  -V(xc)+E(xc)   XCENC  =        56.84713852
  PAW double counting   =     12621.60951659   -12620.90222289
  entropy T*S    EENTRO =        -0.00003384
  eigenvalues    EBANDS =      -255.65764762
  atomic energy  EATOM  =       863.97502114
  Solvation  Ediel_sol  =         0.00000000
  ---------------------------------------------------
  free energy    TOTEN  =        22.67297542 eV

  energy without entropy =       22.67300927  energy(sigma->0) =       22.67299235


--------------------------------------------------------------------------------------------------------




--------------------------------------- Iteration      1(  21)  ---------------------------------------


    POTLOK:  cpu time      3.2247: real time      1.7160
    SETDIJ:  cpu time      0.3316: real time      0.1433
     EDDAV:  cpu time      5.0947: real time      2.5201
       DOS:  cpu time      0.0003: real time      0.0003
    CHARGE:  cpu time      1.1318: real time      0.5815
    MIXING:  cpu time      0.4667: real time      0.2536
    --------------------------------------------
      LOOP:  cpu time     10.2498: real time      5.2148

 eigenvalue-minimisations  :    24
 total energy-change (2. order) :-0.1035805E-02  (-0.6836409E-03)
 number of electron      12.0000053 magnetization 
 augmentation part        1.4578177 magnetization 

 Broyden mixing:
  rms(total) = 0.49739E-02    rms(broyden)= 0.49425E-02
  rms(prec ) = 0.65749E-02
  weight for this iteration     100.00

 eigenvalues of (default mixing * dielectric matrix)
  average eigenvalue GAMMA=   2.1725
  6.8552  6.8552  4.5925  2.3947  2.3947  2.0192  2.0192  0.7680  0.7680  1.1066
  1.1066  0.9159  0.8192  0.7666  0.7666  0.6115

 Free energy of the ion-electron system (eV)
  ---------------------------------------------------
  alpha Z        PSCENC =         0.08965302
  Ewald energy   TEWEN  =       488.51734606
  -Hartree energ DENC   =     -1132.79987190
  -exchange      EXHF   =         0.00000000
  -V(xc)+E(xc)   XCENC  =        56.86778067
  PAW double counting   =     12616.42923526   -12615.72015480
  entropy T*S    EENTRO =        -0.00005695
  eigenvalues    EBANDS =      -254.68701289
  atomic energy  EATOM  =       863.97502114
  Solvation  Ediel_sol  =         0.00000000
  ---------------------------------------------------
  free energy    TOTEN  =        22.67193962 eV

  energy without entropy =       22.67199657  energy(sigma->0) =       22.67196810


--------------------------------------------------------------------------------------------------------




--------------------------------------- Iteration      1(  22)  ---------------------------------------


    POTLOK:  cpu time      3.4896: real time      1.7151
    SETDIJ:  cpu time      0.3655: real time      0.1827
     EDDAV:  cpu time      5.6493: real time      2.8998
       DOS:  cpu time      0.0012: real time      0.0011
    CHARGE:  cpu time      1.4372: real time      0.7081
    MIXING:  cpu time      0.6550: real time      0.2902
    --------------------------------------------
      LOOP:  cpu time     11.5977: real time      5.7971

 eigenvalue-minimisations  :    24
 total energy-change (2. order) :-0.6249849E-03  (-0.5160808E-03)
 number of electron      12.0000053 magnetization 
 augmentation part        1.4565244 magnetization 

 Broyden mixing:
  rms(total) = 0.35814E-02    rms(broyden)= 0.35662E-02
  rms(prec ) = 0.37985E-02
  weight for this iteration     100.00

 eigenvalues of (default mixing * dielectric matrix)
  average eigenvalue GAMMA=   2.1584
  7.2255  7.2255  3.0518  3.0518  2.6180  2.1069  2.1069  1.8180  0.7680  0.7680
  1.1825  0.9559  0.9559  0.7879  0.7396  0.7396  0.5908

 Free energy of the ion-electron system (eV)
  ---------------------------------------------------
  alpha Z        PSCENC =         0.08965302
  Ewald energy   TEWEN  =       488.51734606
  -Hartree energ DENC   =     -1133.66549345
  -exchange      EXHF   =         0.00000000
  -V(xc)+E(xc)   XCENC  =        56.89104085
  PAW double counting   =     12610.95395645   -12610.24515957
  entropy T*S    EENTRO =        -0.00001390
  eigenvalues    EBANDS =      -253.84503596
  atomic energy  EATOM  =       863.97502114
  Solvation  Ediel_sol  =         0.00000000
  ---------------------------------------------------
  free energy    TOTEN  =        22.67131464 eV

  energy without entropy =       22.67132853  energy(sigma->0) =       22.67132158


--------------------------------------------------------------------------------------------------------




--------------------------------------- Iteration      1(  23)  ---------------------------------------


    POTLOK:  cpu time      3.2642: real time      1.8357
    SETDIJ:  cpu time      0.3216: real time      0.1586
     EDDAV:  cpu time      5.7845: real time      2.8291
       DOS:  cpu time      0.0007: real time      0.0007
    CHARGE:  cpu time      1.0532: real time      0.5843
    MIXING:  cpu time      0.5266: real time      0.2827
    --------------------------------------------
      LOOP:  cpu time     10.9508: real time      5.6911

 eigenvalue-minimisations  :    24
 total energy-change (2. order) :-0.5330318E-03  (-0.2412464E-03)
 number of electron      12.0000053 magnetization 
 augmentation part        1.4557073 magnetization 

 Broyden mixing:
  rms(total) = 0.39809E-02    rms(broyden)= 0.39701E-02
  rms(prec ) = 0.44268E-02
  weight for this iteration     100.00

 eigenvalues of (default mixing * dielectric matrix)
  average eigenvalue GAMMA=   2.1565
  7.3998  7.3998  3.8829  3.2979  2.5995  2.1723  1.9676  1.9676  0.7680  0.7680
  1.1597  0.9308  0.9308  0.8799  0.7146  0.7146  0.6741  0.5882

 Free energy of the ion-electron system (eV)
  ---------------------------------------------------
  alpha Z        PSCENC =         0.08965302
  Ewald energy   TEWEN  =       488.51734606
  -Hartree energ DENC   =     -1133.49684992
  -exchange      EXHF   =         0.00000000
  -V(xc)+E(xc)   XCENC  =        56.88650779
  PAW double counting   =     12616.01140003   -12615.30225998
  entropy T*S    EENTRO =        -0.00005423
  eigenvalues    EBANDS =      -254.00998231
  atomic energy  EATOM  =       863.97502114
  Solvation  Ediel_sol  =         0.00000000
  ---------------------------------------------------
  free energy    TOTEN  =        22.67078160 eV

  energy without entropy =       22.67083584  energy(sigma->0) =       22.67080872


--------------------------------------------------------------------------------------------------------




--------------------------------------- Iteration      1(  24)  ---------------------------------------


    POTLOK:  cpu time      3.5864: real time      1.8056
    SETDIJ:  cpu time      0.3171: real time      0.1729
     EDDAV:  cpu time      6.7320: real time      3.5385
       DOS:  cpu time      0.0002: real time      0.0002
    CHARGE:  cpu time      1.2216: real time      0.5449
    MIXING:  cpu time      0.4396: real time      0.2263
    --------------------------------------------
      LOOP:  cpu time     12.2970: real time      6.2884

 eigenvalue-minimisations  :    36
 total energy-change (2. order) :-0.5556274E-03  (-0.3288504E-03)
 number of electron      12.0000053 magnetization 
 augmentation part        1.4545680 magnetization 

 Broyden mixing:
  rms(total) = 0.51034E-02    rms(broyden)= 0.50879E-02
  rms(prec ) = 0.62152E-02
  weight for this iteration     100.00

 eigenvalues of (default mixing * dielectric matrix)
  average eigenvalue GAMMA=   2.2171
  7.1527  7.1527  6.5069  3.1166  2.4810  2.4810  2.3821  0.7680  0.7680  1.6030
  0.9825  0.9825  1.0135  1.0135  0.9753  0.7397  0.7397  0.6878  0.5786

 Free energy of the ion-electron system (eV)
  ---------------------------------------------------
  alpha Z        PSCENC =         0.08965302
  Ewald energy   TEWEN  =       488.51734606
  -Hartree energ DENC   =     -1133.47557576
  -exchange      EXHF   =         0.00000000
  -V(xc)+E(xc)   XCENC  =        56.88147517
  PAW double counting   =     12617.06259064   -12616.35094598
  entropy T*S    EENTRO =        -0.00001876
  eigenvalues    EBANDS =      -254.02931956
  atomic energy  EATOM  =       863.97502114
  Solvation  Ediel_sol  =         0.00000000
  ---------------------------------------------------
  free energy    TOTEN  =        22.67022598 eV

  energy without entropy =       22.67024474  energy(sigma->0) =       22.67023536


--------------------------------------------------------------------------------------------------------




--------------------------------------- Iteration      1(  25)  ---------------------------------------


    POTLOK:  cpu time      3.4376: real time      1.8582
    SETDIJ:  cpu time      0.2440: real time      0.1203
     EDDAV:  cpu time      5.9031: real time      2.8842
       DOS:  cpu time      0.0003: real time      0.0003
    CHARGE:  cpu time      1.4604: real time      0.7131
    MIXING:  cpu time      0.5763: real time      0.3257
    --------------------------------------------
      LOOP:  cpu time     11.6216: real time      5.9018

 eigenvalue-minimisations  :    24
 total energy-change (2. order) : 0.1376970E-04  (-0.1920651E-04)
 number of electron      12.0000053 magnetization 
 augmentation part        1.4546624 magnetization 

 Broyden mixing:
  rms(total) = 0.42384E-02    rms(broyden)= 0.42371E-02
  rms(prec ) = 0.52663E-02
  weight for this iteration     100.00

 eigenvalues of (default mixing * dielectric matrix)
  average eigenvalue GAMMA=   2.1553
  7.2633  7.2633  6.4589  2.7576  2.7074  2.7074  2.3488  0.7680  0.7680  1.4756
  1.2177  1.2177  1.0470  0.9573  0.9573  0.7411  0.7411  0.7020  0.5818  0.4252

 Free energy of the ion-electron system (eV)
  ---------------------------------------------------
  alpha Z        PSCENC =         0.08965302
  Ewald energy   TEWEN  =       488.51734606
  -Hartree energ DENC   =     -1133.38019545
  -exchange      EXHF   =         0.00000000
  -V(xc)+E(xc)   XCENC  =        56.87747557
  PAW double counting   =     12617.62394183   -12616.91136811
  entropy T*S    EENTRO =        -0.00001698
  eigenvalues    EBANDS =      -254.12161734
  atomic energy  EATOM  =       863.97502114
  Solvation  Ediel_sol  =         0.00000000
  ---------------------------------------------------
  free energy    TOTEN  =        22.67023975 eV

  energy without entropy =       22.67025672  energy(sigma->0) =       22.67024823


--------------------------------------------------------------------------------------------------------




--------------------------------------- Iteration      1(  26)  ---------------------------------------


    POTLOK:  cpu time      3.5116: real time      1.8753
    SETDIJ:  cpu time      0.3454: real time      0.1272
     EDDAV:  cpu time      5.9259: real time      2.8642
       DOS:  cpu time      0.0003: real time      0.0003
    CHARGE:  cpu time      1.3000: real time      0.6173
    MIXING:  cpu time      0.5347: real time      0.2955
    --------------------------------------------
      LOOP:  cpu time     11.6178: real time      5.7798

 eigenvalue-minimisations  :    24
 total energy-change (2. order) : 0.8134443E-05  (-0.7069045E-05)
 number of electron      12.0000053 magnetization 
 augmentation part        1.4549495 magnetization 

 Broyden mixing:
  rms(total) = 0.30138E-02    rms(broyden)= 0.30137E-02
  rms(prec ) = 0.38520E-02
  weight for this iteration     100.00

 eigenvalues of (default mixing * dielectric matrix)
  average eigenvalue GAMMA=   2.2643
  8.9546  7.0586  7.0586  3.2117  3.2117  2.4320  2.2221  1.7220  1.7220  0.7680
  0.7680  1.2951  1.1167  0.9116  0.8285  0.8285  0.7657  0.7657  0.7144  0.6275
  0.5667

 Free energy of the ion-electron system (eV)
  ---------------------------------------------------
  alpha Z        PSCENC =         0.08965302
  Ewald energy   TEWEN  =       488.51734606
  -Hartree energ DENC   =     -1133.24935420
  -exchange      EXHF   =         0.00000000
  -V(xc)+E(xc)   XCENC  =        56.87347475
  PAW double counting   =     12617.83948518   -12617.12658842
  entropy T*S    EENTRO =        -0.00001063
  eigenvalues    EBANDS =      -254.24877903
  atomic energy  EATOM  =       863.97502114
  Solvation  Ediel_sol  =         0.00000000
  ---------------------------------------------------
  free energy    TOTEN  =        22.67024788 eV

  energy without entropy =       22.67025851  energy(sigma->0) =       22.67025320


--------------------------------------------------------------------------------------------------------




--------------------------------------- Iteration      1(  27)  ---------------------------------------


    POTLOK:  cpu time      3.3075: real time      1.7259
    SETDIJ:  cpu time      0.3037: real time      0.1429
     EDDAV:  cpu time      5.5624: real time      2.6136
       DOS:  cpu time      0.0004: real time      0.0004
    CHARGE:  cpu time      0.9643: real time      0.4848
    MIXING:  cpu time      0.5646: real time      0.3525
    --------------------------------------------
      LOOP:  cpu time     10.7029: real time      5.3201

 eigenvalue-minimisations  :    24
 total energy-change (2. order) : 0.1617663E-04  (-0.3486742E-05)
 number of electron      12.0000053 magnetization 
 augmentation part        1.4551010 magnetization 

 Broyden mixing:
  rms(total) = 0.19946E-02    rms(broyden)= 0.19944E-02
  rms(prec ) = 0.27594E-02
  weight for this iteration     100.00

 eigenvalues of (default mixing * dielectric matrix)
  average eigenvalue GAMMA=   2.3245
  9.8827  7.3379  7.3379  3.5621  3.5621  2.4100  2.1024  1.8416  1.8416  0.7680
  0.7680  1.1770  1.1770  1.1263  1.1263  0.8983  0.8983  0.7397  0.7397  0.6593
  0.6216  0.5611

 Free energy of the ion-electron system (eV)
  ---------------------------------------------------
  alpha Z        PSCENC =         0.08965302
  Ewald energy   TEWEN  =       488.51734606
  -Hartree energ DENC   =     -1133.16243085
  -exchange      EXHF   =         0.00000000
  -V(xc)+E(xc)   XCENC  =        56.87059105
  PAW double counting   =     12617.66694836   -12616.95398365
  entropy T*S    EENTRO =        -0.00000389
  eigenvalues    EBANDS =      -254.33287718
  atomic energy  EATOM  =       863.97502114
  Solvation  Ediel_sol  =         0.00000000
  ---------------------------------------------------
  free energy    TOTEN  =        22.67026406 eV

  energy without entropy =       22.67026795  energy(sigma->0) =       22.67026600


--------------------------------------------------------------------------------------------------------




--------------------------------------- Iteration      1(  28)  ---------------------------------------


    POTLOK:  cpu time      3.2644: real time      1.7204
    SETDIJ:  cpu time      0.2046: real time      0.1014
     EDDAV:  cpu time      5.5343: real time      2.6899
       DOS:  cpu time      0.0010: real time      0.0005
    CHARGE:  cpu time      1.4633: real time      0.6684
    MIXING:  cpu time      0.4989: real time      0.2621
    --------------------------------------------
      LOOP:  cpu time     10.9664: real time      5.4428

 eigenvalue-minimisations  :    24
 total energy-change (2. order) : 0.2614765E-05  (-0.5467361E-05)
 number of electron      12.0000053 magnetization 
 augmentation part        1.4554446 magnetization 

 Broyden mixing:
  rms(total) = 0.79285E-03    rms(broyden)= 0.79078E-03
  rms(prec ) = 0.14103E-02
  weight for this iteration     100.00

 eigenvalues of (default mixing * dielectric matrix)
  average eigenvalue GAMMA=   2.3517
  8.1314  8.1314  7.7204  4.1526  4.1526  2.6143  2.3815  2.3815  1.7420  1.7420
  0.7680  0.7680  1.2572  1.0216  1.0216  1.0290  0.9202  0.7488  0.7488  0.7440
  0.7440  0.6102  0.5576

 Free energy of the ion-electron system (eV)
  ---------------------------------------------------
  alpha Z        PSCENC =         0.08965302
  Ewald energy   TEWEN  =       488.51734606
  -Hartree energ DENC   =     -1133.03865904
  -exchange      EXHF   =         0.00000000
  -V(xc)+E(xc)   XCENC  =        56.86671769
  PAW double counting   =     12617.95270793   -12617.23942188
  entropy T*S    EENTRO =        -0.00000261
  eigenvalues    EBANDS =      -254.45309565
  atomic energy  EATOM  =       863.97502114
  Solvation  Ediel_sol  =         0.00000000
  ---------------------------------------------------
  free energy    TOTEN  =        22.67026667 eV

  energy without entropy =       22.67026928  energy(sigma->0) =       22.67026798


--------------------------------------------------------------------------------------------------------




--------------------------------------- Iteration      1(  29)  ---------------------------------------


    POTLOK:  cpu time      3.2428: real time      1.7450
    SETDIJ:  cpu time      0.3110: real time      0.1474
     EDDAV:  cpu time      5.5171: real time      2.7233
       DOS:  cpu time      0.0009: real time      0.0009
    CHARGE:  cpu time      1.0778: real time      0.5312
    MIXING:  cpu time      0.5977: real time      0.2849
    --------------------------------------------
      LOOP:  cpu time     10.7474: real time      5.4328

 eigenvalue-minimisations  :    24
 total energy-change (2. order) :-0.1027869E-03  (-0.8143774E-05)
 number of electron      12.0000053 magnetization 
 augmentation part        1.4555918 magnetization 

 Broyden mixing:
  rms(total) = 0.48406E-03    rms(broyden)= 0.48239E-03
  rms(prec ) = 0.56004E-03
  weight for this iteration     100.00

 eigenvalues of (default mixing * dielectric matrix)
  average eigenvalue GAMMA=   2.3676
  8.4585  8.4585  7.4653  4.5683  4.5683  2.5490  2.5076  2.5076  0.7680  0.7680
  1.6250  1.6250  1.7229  1.2011  1.0197  1.0197  0.9541  0.8467  0.8467  0.7505
  0.7505  0.6847  0.6025  0.5536

 Free energy of the ion-electron system (eV)
  ---------------------------------------------------
  alpha Z        PSCENC =         0.08965302
  Ewald energy   TEWEN  =       488.51734606
  -Hartree energ DENC   =     -1132.88421724
  -exchange      EXHF   =         0.00000000
  -V(xc)+E(xc)   XCENC  =        56.86330089
  PAW double counting   =     12618.67116571   -12617.95795456
  entropy T*S    EENTRO =        -0.00000792
  eigenvalues    EBANDS =      -254.60414323
  atomic energy  EATOM  =       863.97502114
  Solvation  Ediel_sol  =         0.00000000
  ---------------------------------------------------
  free energy    TOTEN  =        22.67016388 eV

  energy without entropy =       22.67017180  energy(sigma->0) =       22.67016784


--------------------------------------------------------------------------------------------------------




--------------------------------------- Iteration      1(  30)  ---------------------------------------


    POTLOK:  cpu time      3.2733: real time      1.7721
    SETDIJ:  cpu time      0.2681: real time      0.1344
     EDDAV:  cpu time      4.7058: real time      2.4441
       DOS:  cpu time      0.0013: real time      0.0013
    CHARGE:  cpu time      1.1000: real time      0.5005
    MIXING:  cpu time      0.6166: real time      0.3175
    --------------------------------------------
      LOOP:  cpu time      9.9652: real time      5.1698

 eigenvalue-minimisations  :    24
 total energy-change (2. order) :-0.2025892E-04  (-0.3208728E-05)
 number of electron      12.0000053 magnetization 
 augmentation part        1.4557839 magnetization 

 Broyden mixing:
  rms(total) = 0.35279E-03    rms(broyden)= 0.34989E-03
  rms(prec ) = 0.39648E-03
  weight for this iteration     100.00

 eigenvalues of (default mixing * dielectric matrix)
  average eigenvalue GAMMA=   2.3703
  8.6936  8.6936  5.8523  5.8523  4.3478  3.7347  2.4822  2.3142  2.3142  0.7680
  0.7680  1.5957  1.5957  1.3970  1.0337  1.0217  1.0217  0.8964  0.7515  0.7515
  0.7732  0.7732  0.6811  0.5952  0.5487

 Free energy of the ion-electron system (eV)
  ---------------------------------------------------
  alpha Z        PSCENC =         0.08965302
  Ewald energy   TEWEN  =       488.51734606
  -Hartree energ DENC   =     -1132.82689463
  -exchange      EXHF   =         0.00000000
  -V(xc)+E(xc)   XCENC  =        56.86180752
  PAW double counting   =     12619.02923597   -12618.31577104
  entropy T*S    EENTRO =        -0.00001094
  eigenvalues    EBANDS =      -254.66024348
  atomic energy  EATOM  =       863.97502114
  Solvation  Ediel_sol  =         0.00000000
  ---------------------------------------------------
  free energy    TOTEN  =        22.67014363 eV

  energy without entropy =       22.67015457  energy(sigma->0) =       22.67014910


[...]
  eigenvalues    EBANDS =      -254.63746976
  atomic energy  EATOM  =       863.97502114
  Solvation  Ediel_sol  =         0.00000000
  ---------------------------------------------------
  free energy    TOTEN  =        22.61370640 eV

  energy without entropy =       22.67012536  energy(sigma->0) =       22.64191588


--------------------------------------------------------------------------------------------------------




--------------------------------------- Iteration      1(  45)  ---------------------------------------


    POTLOK:  cpu time      3.3225: real time      1.7583
    SETDIJ:  cpu time      0.3117: real time      0.1640
     EDDAV:  cpu time      5.4317: real time      2.7951
       DOS:  cpu time      0.0003: real time      0.0003
    CHARGE:  cpu time      1.5804: real time      0.6770
    MIXING:  cpu time      0.4735: real time      0.3125
    --------------------------------------------
      LOOP:  cpu time     11.1202: real time      5.7072

 eigenvalue-minimisations  :    24
 total energy-change (2. order) : 0.6237162E-06  (-0.2359928E-07)
 number of electron      12.0000053 magnetization 
 augmentation part        1.4558055 magnetization 

 Broyden mixing:
  rms(total) = 0.19012E-03    rms(broyden)= 0.19010E-03
  rms(prec ) = 0.21881E-03
  weight for this iteration     100.00

 eigenvalues of (default mixing * dielectric matrix)
  average eigenvalue GAMMA=   2.1238
 10.0760  8.8269  8.8269  7.3036  4.8934  4.8934  2.7210  2.7210  2.8727  2.8727
  2.4616  2.4616  1.7339  1.7339  1.5260  1.5260  0.5414  0.5414  0.7680  0.7680
  0.0263  1.0708  1.0708  1.0296  0.9091  0.9091  0.9612  0.9112  0.9112  0.7838
  0.7838  0.7545  0.7545  0.5486  0.5486  0.6727  0.5965  0.5499  0.5448  0.5448

 Free energy of the ion-electron system (eV)
  ---------------------------------------------------
  alpha Z        PSCENC =         0.08965302
  Ewald energy   TEWEN  =       488.51734606
  -Hartree energ DENC   =     -1132.85702947
  -exchange      EXHF   =         0.00000000
  -V(xc)+E(xc)   XCENC  =        56.86315012
  PAW double counting   =     12618.81220399   -12618.09899312
  entropy T*S    EENTRO =        -0.05641896
  eigenvalues    EBANDS =      -254.63122576
  atomic energy  EATOM  =       863.97502114
  Solvation  Ediel_sol  =         0.00000000
  ---------------------------------------------------
  free energy    TOTEN  =        22.61370703 eV

  energy without entropy =       22.67012599  energy(sigma->0) =       22.64191651


--------------------------------------------------------------------------------------------------------




--------------------------------------- Iteration      1(  46)  ---------------------------------------


    POTLOK:  cpu time      3.8706: real time      2.0211
    SETDIJ:  cpu time      0.2645: real time      0.1370
     EDDAV:  cpu time      6.9745: real time      3.6733
       DOS:  cpu time      0.0005: real time      0.0005
    CHARGE:  cpu time      1.2445: real time      0.5961
    MIXING:  cpu time      0.6134: real time      0.3299
    --------------------------------------------
      LOOP:  cpu time     12.9679: real time      6.7579

 eigenvalue-minimisations  :    36
 total energy-change (2. order) : 0.1982605E-06  (-0.2147824E-07)
 number of electron      12.0000053 magnetization 
 augmentation part        1.4557871 magnetization 

 Broyden mixing:
  rms(total) = 0.10115E-03    rms(broyden)= 0.10107E-03
  rms(prec ) = 0.12342E-03
  weight for this iteration     100.00

 eigenvalues of (default mixing * dielectric matrix)
  average eigenvalue GAMMA=   2.1150
 10.0913  8.8345  8.8345  7.1155  4.8342  4.8342  3.1204  3.1204  3.2808  2.5687
  2.4746  2.4746  1.8806  1.5666  1.5666  1.5506  0.5414  0.5414  0.7680  0.7680
  0.0263  1.0223  1.0223  1.0703  1.0703  0.9681  0.9681  0.8774  0.8774  0.7851
  0.7851  0.7554  0.7554  0.5461  0.5461  0.7123  0.7123  0.6777  0.5498  0.5960
  0.6236

 Free energy of the ion-electron system (eV)
  ---------------------------------------------------
  alpha Z        PSCENC =         0.08965302
  Ewald energy   TEWEN  =       488.51734606
  -Hartree energ DENC   =     -1132.85987729
  -exchange      EXHF   =         0.00000000
  -V(xc)+E(xc)   XCENC  =        56.86325948
  PAW double counting   =     12618.81448758   -12618.10129593
  entropy T*S    EENTRO =        -0.05641896
  eigenvalues    EBANDS =      -254.62846788
  atomic energy  EATOM  =       863.97502114
  Solvation  Ediel_sol  =         0.00000000
  ---------------------------------------------------
  free energy    TOTEN  =        22.61370723 eV

  energy without entropy =       22.67012618  energy(sigma->0) =       22.64191670


--------------------------------------------------------------------------------------------------------




--------------------------------------- Iteration      1(  47)  ---------------------------------------


    POTLOK:  cpu time      2.8904: real time      1.7107
    SETDIJ:  cpu time      0.3515: real time      0.2212
     EDDAV:  cpu time      7.6640: real time      3.7994
       DOS:  cpu time      0.0005: real time      0.0005
    CHARGE:  cpu time      1.5045: real time      0.6312
    MIXING:  cpu time      0.6296: real time      0.3705
    --------------------------------------------
      LOOP:  cpu time     13.0403: real time      6.7335

 eigenvalue-minimisations  :    36
 total energy-change (2. order) : 0.9176347E-06  (-0.4494670E-08)
 number of electron      12.0000053 magnetization 
 augmentation part        1.4557873 magnetization 

 Broyden mixing:
  rms(total) = 0.96352E-04    rms(broyden)= 0.96350E-04
  rms(prec ) = 0.11802E-03
  weight for this iteration     100.00

 eigenvalues of (default mixing * dielectric matrix)
  average eigenvalue GAMMA=   2.1153
  9.9701  8.7803  8.7803  7.4137  4.7079  4.7079  3.5643  3.5643  3.2582  2.6016
  2.5349  2.2522  2.2522  1.6035  1.6035  1.5662  0.5414  0.5414  0.7680  0.7680
  1.1607  1.1607  0.0263  1.1034  1.0842  0.8023  0.8023  0.5469  0.5469  0.9161
  0.9027  0.9027  0.8345  0.8345  0.7905  0.7508  0.7508  0.5498  0.5962  0.6631
  0.6692  0.6692

 Free energy of the ion-electron system (eV)
  ---------------------------------------------------
  alpha Z        PSCENC =         0.08965302
  Ewald energy   TEWEN  =       488.51734606
  -Hartree energ DENC   =     -1132.86037303
  -exchange      EXHF   =         0.00000000
  -V(xc)+E(xc)   XCENC  =        56.86327294
  PAW double counting   =     12618.82036065   -12618.10716421
  entropy T*S    EENTRO =        -0.05641896
  eigenvalues    EBANDS =      -254.62798947
  atomic energy  EATOM  =       863.97502114
  Solvation  Ediel_sol  =         0.00000000
  ---------------------------------------------------
  free energy    TOTEN  =        22.61370814 eV

  energy without entropy =       22.67012710  energy(sigma->0) =       22.64191762


--------------------------------------------------------------------------------------------------------




--------------------------------------- Iteration      1(  48)  ---------------------------------------


    POTLOK:  cpu time      3.5820: real time      2.0084
    SETDIJ:  cpu time      0.2591: real time      0.1422
     EDDAV:  cpu time      7.3966: real time      3.6574
       DOS:  cpu time      0.0009: real time      0.0009
    --------------------------------------------
      LOOP:  cpu time     11.2386: real time      5.8088

 eigenvalue-minimisations  :    36
 total energy-change (2. order) :-0.3943796E-07  (-0.1366841E-08)
 number of electron      12.0000053 magnetization 
 augmentation part        1.4557873 magnetization 

 Free energy of the ion-electron system (eV)
  ---------------------------------------------------
  alpha Z        PSCENC =         0.08965302
  Ewald energy   TEWEN  =       488.51734606
  -Hartree energ DENC   =     -1132.86060545
  -exchange      EXHF   =         0.00000000
  -V(xc)+E(xc)   XCENC  =        56.86327972
  PAW double counting   =     12618.83351361   -12618.12030922
  entropy T*S    EENTRO =        -0.05641896
  eigenvalues    EBANDS =      -254.62777182
  atomic energy  EATOM  =       863.97502114
  Solvation  Ediel_sol  =         0.00000000
  ---------------------------------------------------
  free energy    TOTEN  =        22.61370810 eV

  energy without entropy =       22.67012706  energy(sigma->0) =       22.64191758


--------------------------------------------------------------------------------------------------------




 average (electrostatic) potential at core
  the test charge radii are     0.6768
  (the norm of the test charge is              1.0000)
       1-136.8611       2-136.8619
 
 
 
 E-fermi :  -0.8925     XC(G=0):  -0.4488     alpha+bet : -0.0568

 Fermi energy:        -0.8925326362

 k-point     1 :       0.0000    0.0000    0.0000
  band No.  band energies     occupation 
      1     -48.3715      2.00000
      2     -22.4071      2.00000
      3     -22.4071      2.00000
      4     -17.6361      2.00000
      5     -15.5995      2.00000
      6      -0.8925      1.00000
      7      -0.8925      1.00000
      8      -0.6046      0.00000
      9       0.0833      0.00000
     10       0.0833      0.00000
     11       0.1303      0.00000
     12       0.1949      0.00000


--------------------------------------------------------------------------------------------------------


 soft charge-density along one line, spin component            1
         0         1         2         3         4         5         6         7         8         9
 total charge-density along one line
 
 pseudopotential strength for first ion, spin component:            1
 34.814  35.903  40.776   0.000  -0.000  -0.759   0.000  -0.000
 35.903  37.026  42.011   0.000  -0.000  -0.784   0.000  -0.000
 40.776  42.011  35.421   0.000  -0.000  -0.113   0.000  -0.000
  0.000   0.000   0.000  -7.961  -0.000  -0.000  -8.993  -0.000
 -0.000  -0.000  -0.000  -0.000  -7.961  -0.000  -0.000  -8.993
 -0.759  -0.784  -0.113  -0.000  -0.000  -9.652  -0.000  -0.000
  0.000   0.000   0.000  -8.993  -0.000  -0.000 -10.145  -0.000
 -0.000  -0.000  -0.000  -0.000  -8.993  -0.000  -0.000 -10.145
 -0.901  -0.931  -0.135  -0.000  -0.000 -10.954  -0.000  -0.000
 -0.000  -0.000  -0.000  -0.328   0.000   0.000  -1.361   0.000
  0.000   0.000   0.000   0.000  -0.328   0.000   0.000  -1.361
  3.712   3.840   1.228   0.000   0.000   2.694   0.000   0.000
  0.000   0.000  -0.000  -0.221   0.000   0.000  -0.260   0.000
  0.000   0.000  -0.000  -0.000   0.000   0.000  -0.000   0.000
 -0.053  -0.055   0.017   0.000  -0.000   0.228   0.000  -0.000
  0.000   0.000  -0.000   0.000  -0.221  -0.000   0.000  -0.260
  0.091   0.095  -0.029   0.000  -0.000  -0.396   0.000  -0.000
  0.000   0.000  -0.000   2.016  -0.000  -0.000   2.317  -0.000
  0.000   0.000  -0.000   0.000  -0.000  -0.000   0.000  -0.000
 -0.976  -1.016   0.357  -0.000   0.000  -2.318  -0.000   0.000
  0.000   0.000  -0.000  -0.000   2.016   0.000  -0.000   2.317
  1.691   1.759  -0.618  -0.000   0.000   4.015  -0.000   0.000
 total augmentation occupancy for first ion, spin component:            1
149.551 *******  -0.095   0.000   0.000 -84.326   0.000  -0.000  78.033  -0.000  -0.000   0.252   0.000   0.000   0.865  -0.000
******* 133.689   0.041   0.000   0.000  78.921   0.000  -0.000 -73.008  -0.000  -0.000  -0.176  -0.000   0.000  -0.939   0.000
 -0.095   0.041   0.001   0.000   0.000   0.059   0.000  -0.000  -0.063  -0.000   0.000  -0.002  -0.000   0.000   0.004   0.000
  0.000   0.000   0.000   3.082   0.000  -0.000  -2.261   0.000  -0.000   0.113   0.000  -0.000   1.057   0.000  -0.000   0.000
  0.000   0.000   0.000   0.000   3.082   0.000   0.000  -2.261   0.000   0.000   0.113   0.000   0.000  -0.000   0.000   1.057
-84.326  78.921   0.059  -0.000   0.000  47.696   0.000   0.000 -43.711   0.000  -0.000  -0.121   0.000   0.000  -0.536   0.000
  0.000   0.000   0.000  -2.261   0.000   0.000   2.958   0.000  -0.000  -0.036   0.000   0.000  -0.618   0.000   0.000   0.000
  0.000  -0.000  -0.000   0.000  -2.261   0.000   0.000   2.958   0.000   0.000  -0.036   0.000   0.000  -0.000   0.000  -0.618
 78.033 -73.008  -0.063  -0.000   0.000 -43.711   0.000   0.000  41.740  -0.000   0.000   0.230  -0.000   0.000   0.231  -0.000
 -0.000   0.000   0.000   0.113   0.000   0.000  -0.036   0.000   0.000   0.006   0.000  -0.000   0.045   0.000   0.000   0.000
 -0.000   0.000   0.000   0.000   0.113  -0.000   0.000  -0.036   0.000   0.000   0.006   0.000   0.000   0.000   0.000   0.045
  0.252  -0.176  -0.002  -0.000   0.000  -0.121   0.000   0.000   0.230  -0.000   0.000   0.011  -0.000   0.000  -0.021   0.000
  0.000  -0.000  -0.000   1.057   0.000   0.000  -0.618   0.000  -0.000   0.045   0.000  -0.000   0.381   0.000  -0.000   0.000
  0.000   0.000   0.000   0.000  -0.000   0.000   0.000  -0.000   0.000   0.000   0.000   0.000   0.000   0.000   0.000  -0.000
  0.865  -0.939   0.004  -0.000   0.000  -0.536   0.000   0.000   0.231   0.000   0.000  -0.021   0.000   0.000   0.055   0.000
  0.000  -0.000   0.000   0.000   1.057   0.000   0.000  -0.618   0.000   0.000   0.045   0.000   0.000   0.000   0.000   0.381
 -1.497   1.626  -0.007  -0.000   0.000   0.928   0.000   0.000  -0.401   0.000   0.000   0.037  -0.000   0.000  -0.095   0.000
  0.000   0.000  -0.000   0.006   0.000  -0.000  -0.039   0.000   0.000  -0.001   0.000   0.000  -0.002  -0.000   0.000   0.000
  0.000   0.000   0.000  -0.000   0.000   0.000   0.000   0.000   0.000   0.000   0.000   0.000  -0.000  -0.000   0.000   0.000
  0.621  -0.555  -0.001   0.000   0.000  -0.348   0.000  -0.000   0.348  -0.000   0.000   0.004   0.000   0.000  -0.002   0.000
  0.000   0.000   0.000   0.000   0.006   0.000   0.000  -0.039   0.000   0.000  -0.001   0.000   0.000   0.000   0.000  -0.002
 -1.076   0.961   0.002  -0.000  -0.000   0.602   0.000  -0.000  -0.603  -0.000   0.000  -0.007  -0.000  -0.000   0.004   0.000


------------------------ aborting loop because EDIFF is reached ----------------------------------------


    CHARGE:  cpu time      1.2840: real time      0.6291
    FORLOC:  cpu time      0.0663: real time      0.0398
    FORNL :  cpu time      1.7197: real time      0.8076
    STRESS:  cpu time      3.7983: real time      2.1760
    FORCOR:  cpu time      2.7228: real time      1.5690
    FORHAR:  cpu time      0.9160: real time      0.5155
    MIXING:  cpu time      0.5854: real time      0.3327
    OFIELD:  cpu time      0.0000: real time      0.0000

 ---------------------------------------------------------------------------------------------

         DFTD3 V3.0 Rev 1        
 IVDW         = 12
 DF pbe       
 parameters
 VDW_S6       =    1.0000
 VDW_S8       =    0.7875
 VDW_A1       =    0.4289
 VDW_A2       =    4.4407
 k1-k3        =   16.0000    1.3333   -4.0000
 VDW_RADIUS   =   50.2022 A
 VDW_CNRADIUS =   21.1671 A
 Edisp (eV)   -0.00729

 E6    (eV) :    -0.0052
 E8    (eV) :    -0.0021
 % E8        : 28.11
    FORVDW:  cpu time      0.0073: real time      0.0233

  FORCE on cell =-STRESS in cart. coord.  units (eV):
  Direction    XX          YY          ZZ          XY          YZ          ZX
  --------------------------------------------------------------------------------------
  Alpha Z     0.08965     0.08965     0.08965
  Ewald     623.97061   -67.72673   -67.72673    -0.00000    -0.00000    -0.00000
  Hartree   491.05945   320.91059   320.91059    -0.00000    -0.00000    -0.00000
  E(xc)     -64.12705   -65.69132   -65.69132     0.00000    -0.00000     0.00000
  Local   -1276.96730  -601.03309  -601.03309     0.00000    -0.00000    -0.00000
  n-local    73.77781    55.27101    55.27102     0.00000     0.00001    -0.00000
  augment    23.84388    46.55043    46.55043     0.00000     0.00000    -0.00000
  Kinetic   292.33445   303.08116   303.08120    -0.00000     0.00002    -0.00000
  Fock        0.00000     0.00000     0.00000     0.00000     0.00000     0.00000
  vdW        -0.00003    -0.00003    -0.00003    -0.00000    -0.00000     0.00000
  -------------------------------------------------------------------------------------
  Total     163.98149    -8.54831    -8.54831     0.00000    -0.00000     0.00000
  in kB      86.17899    -4.49249    -4.49249     0.00000    -0.00000     0.00000
  external pressure =       25.73 kB  Pullay stress =        0.00 kB


 VOLUME and BASIS-vectors are now :
 -----------------------------------------------------------------------------
  energy-cutoff  :      360.00
  volume of cell :     3048.63
      direct lattice vectors                 reciprocal lattice vectors
    14.500000000  0.000000000  0.000000000     0.068965517  0.000000000  0.000000000
     0.000000000 14.500000000  0.000000000     0.000000000  0.068965517  0.000000000
     0.000000000  0.000000000 14.500000000     0.000000000  0.000000000  0.068965517

  length of vectors
    14.500000000 14.500000000 14.500000000     0.068965517  0.068965517  0.068965517


 FORCES acting on ions
    electron-ion (+dipol)            ewald-force                    non-local-force                 convergence-correction
 -----------------------------------------------------------------------------------------------
   0.646E+03 -.269E-15 0.811E-15   -.921E+03 0.582E-16 -.182E-16   0.446E+02 -.331E-22 0.662E-23   -.180E-02 0.978E-14 0.118E-14
   -.646E+03 -.114E-14 -.230E-05   0.921E+03 -.345E-17 0.478E-17   -.446E+02 0.529E-22 0.000E+00   0.180E-02 0.114E-14 -.202E-13
 -----------------------------------------------------------------------------------------------
   -.414E-03 -.141E-14 -.230E-05   0.000E+00 0.547E-16 -.135E-16   0.000E+00 0.199E-22 0.662E-23   0.179E-07 0.109E-13 -.191E-13
 
 
 POSITION                                       TOTAL-FORCE (eV/Angst)
 -----------------------------------------------------------------------------------
      0.00000      0.00000      0.00000      -230.056297      0.000000      0.000000
      0.75000      0.00000      0.00000       230.056297     -0.000000     -0.000000
 -----------------------------------------------------------------------------------
    total drift:                               -0.000414      0.000000     -0.000002


--------------------------------------------------------------------------------------------------------



  FREE ENERGIE OF THE ION-ELECTRON SYSTEM (eV)
  ---------------------------------------------------
  free  energy   TOTEN  =        22.60641461 eV

  energy  without entropy=       22.66283357  energy(sigma->0) =       22.63462409
 


--------------------------------------------------------------------------------------------------------


    POTLOK:  cpu time      4.0737: real time      2.1026


--------------------------------------------------------------------------------------------------------


     LOOP+:  cpu time    578.4479: real time    298.6964
    4ORBIT:  cpu time      0.0000: real time      0.0000

 total amount of memory used by VASP MPI-rank0    87953. kBytes
=======================================================================

   base      :      30000. kBytes
   nonlr-proj:       2512. kBytes
   fftplans  :      17290. kBytes
   grid      :      36592. kBytes
   one-center:         46. kBytes
   wavefun   :       1513. kBytes
 
  
  
 General timing and accounting informations for this job:
 ========================================================
  
                  Total CPU time used (sec):      628.119
                            User time (sec):      473.445
                          System time (sec):      154.673
                         Elapsed time (sec):      321.160
  
                   Maximum memory used (kb):      333820.
                   Average memory used (kb):          N/A
  
                          Minor page faults:       630285
                          Major page faults:         2196
                 Voluntary context switches:        41833
