ITEM: TIMESTEP
0
ITEM: NUMBER OF ATOMS
4
ITEM: BOX BOUNDS pp pp pp
0.0000000000000000e+00 1.4500000000000000e+01
0.0000000000000000e+00 1.4500000000000000e+01
0.0000000000000000e+00 1.4500000000000000e+01
ITEM: ATOMS id type xs ys zs
1 1 0 0 0
2 1 0.0832414 0 0
3 1 0 0 0.131034
4 1 0.0832414 0 0.131034
ITEM: TIMESTEP
10
ITEM: NUMBER OF ATOMS
4
ITEM: BOX BOUNDS pp pp pp
0.0000000000000000e+00 1.4500000000000000e+01
0.0000000000000000e+00 1.4500000000000000e+01
0.0000000000000000e+00 1.4500000000000000e+01
ITEM: ATOMS id type xs ys zs
1 1 -0.00403154 -0.00130802 -0.0176884
2 1 0.0861129 0.000441272 -0.0195202
3 1 -0.00365833 0.00107692 0.150199
4 1 0.0880598 -0.000210172 0.149079
ITEM: TIMESTEP
20
ITEM: NUMBER OF ATOMS
4
ITEM: BOX BOUNDS pp pp pp
0.0000000000000000e+00 1.4500000000000000e+01
0.0000000000000000e+00 1.4500000000000000e+01
0.0000000000000000e+00 1.4500000000000000e+01
ITEM: ATOMS id type xs ys zs
1 1 -0.0082455 -0.00260281 -0.0358976
2 1 0.0891631 0.000871833 -0.0395014
3 1 -0.00680807 0.00213286 0.169849
4 1 0.0923732 -0.000401881 0.167619
ITEM: TIMESTEP
30
ITEM: NUMBER OF ATOMS
4
ITEM: BOX BOUNDS pp pp pp
0.0000000000000000e+00 1.4500000000000000e+01
0.0000000000000000e+00 1.4500000000000000e+01
0.0000000000000000e+00 1.4500000000000000e+01
ITEM: ATOMS id type xs ys zs
1 1 -0.00935291 -0.00378159 -0.0542271
2 1 0.0891068 0.00118639 -0.0593623
3 1 -0.00611941 0.00308759 0.189409
4 1 0.0928483 -0.000492386 0.186249
ITEM: TIMESTEP
40
ITEM: NUMBER OF ATOMS
4
ITEM: BOX BOUNDS pp pp pp
0.0000000000000000e+00 1.4500000000000000e+01
0.0000000000000000e+00 1.4500000000000000e+01
0.0000000000000000e+00 1.4500000000000000e+01
ITEM: ATOMS id type xs ys zs
1 1 0.993151 0.995219 0.927258
2 1 0.085439 0.00132155 0.920962
3 1 0.998339 0.0039093 0.208853
4 1 0.0895538 0.99955 0.204996
ITEM: TIMESTEP
50
ITEM: NUMBER OF ATOMS
4
ITEM: BOX BOUNDS pp pp pp
0.0000000000000000e+00 1.4500000000000000e+01
0.0000000000000000e+00 1.4500000000000000e+01
0.0000000000000000e+00 1.4500000000000000e+01
ITEM: ATOMS id type xs ys zs
1 1 0.996658 0.994276 0.908685
2 1 0.0807688 0.00140046 0.901345
3 1 1.00323 0.00471947 0.228286
4 1 0.0858312 0.999604 0.223753
ITEM: TIMESTEP
60
ITEM: NUMBER OF ATOMS
4
ITEM: BOX BOUNDS pp pp pp
0.0000000000000000e+00 1.4500000000000000e+01
0.0000000000000000e+00 1.4500000000000000e+01
0.0000000000000000e+00 1.4500000000000000e+01
ITEM: ATOMS id type xs ys zs
1 1 0.997642 0.993109 0.890343
2 1 0.0786211 0.00170331 0.881497
3 1 1.00474 0.00574608 0.247911
4 1 0.0854804 0.999442 0.242318
ITEM: TIMESTEP
70
ITEM: NUMBER OF ATOMS
4
ITEM: BOX BOUNDS pp pp pp
0.0000000000000000e+00 1.4500000000000000e+01
0.0000000000000000e+00 1.4500000000000000e+01
0.0000000000000000e+00 1.4500000000000000e+01
ITEM: ATOMS id type xs ys zs
1 1 0.994846 0.991543 0.872411
2 1 0.0802528 0.00240505 0.861238
3 1 0.00211136 0.00709221 0.26782
4 1 0.0892724 0.99896 0.2606
ITEM: TIMESTEP
80
ITEM: NUMBER OF ATOMS
4
ITEM: BOX BOUNDS pp pp pp
0.0000000000000000e+00 1.4500000000000000e+01
0.0000000000000000e+00 1.4500000000000000e+01
0.0000000000000000e+00 1.4500000000000000e+01
ITEM: ATOMS id type xs ys zs
1 1 0.990469 0.989787 0.854674
2 1 0.0834662 0.00329631 0.840785
3 1 -0.00166302 0.00853545 0.287815
4 1 0.0942105 0.998381 0.278796
ITEM: TIMESTEP
90
ITEM: NUMBER OF ATOMS
4
ITEM: BOX BOUNDS pp pp pp
0.0000000000000000e+00 1.4500000000000000e+01
0.0000000000000000e+00 1.4500000000000000e+01
0.0000000000000000e+00 1.4500000000000000e+01
ITEM: ATOMS id type xs ys zs
1 1 0.988055 0.988325 0.836636
2 1 0.0847168 0.00389408 0.820633
3 1 -0.00266453 0.00967926 0.307543
4 1 0.0963757 0.998101 0.297257
ITEM: TIMESTEP
100
ITEM: NUMBER OF ATOMS
4
ITEM: BOX BOUNDS pp pp pp
0.0000000000000000e+00 1.4500000000000000e+01
0.0000000000000000e+00 1.4500000000000000e+01
0.0000000000000000e+00 1.4500000000000000e+01
ITEM: ATOMS id type xs ys zs
1 1 0.989373 0.987465 0.817979
2 1 0.082235 0.00389022 0.801099
3 1 0.00055489 0.0103303 0.326834
4 1 0.09432 0.998314 0.316156
ITEM: TIMESTEP
110
ITEM: NUMBER OF ATOMS
4
ITEM: BOX BOUNDS pp pp pp
0.0000000000000000e+00 1.4500000000000000e+01
0.0000000000000000e+00 1.4500000000000000e+01
0.0000000000000000e+00 1.4500000000000000e+01
ITEM: ATOMS id type xs ys zs
1 1 0.99298 0.987002 0.798913
2 1 0.0774639 0.00348907 0.781974
3 1 0.00581036 0.0107275 0.3459
4 1 0.0902282 0.998781 0.335281
ITEM: TIMESTEP
120
ITEM: NUMBER OF ATOMS
4
ITEM: BOX BOUNDS pp pp pp
0.0000000000000000e+00 1.4500000000000000e+01
0.0000000000000000e+00 1.4500000000000000e+01
0.0000000000000000e+00 1.4500000000000000e+01
ITEM: ATOMS id type xs ys zs
1 1 0.995439 0.986303 0.780091
2 1 0.0738411 0.00332405 0.762607
3 1 0.0090899 0.0114141 0.365223
4 1 0.0881124 0.998959 0.354149
ITEM: TIMESTEP
130
ITEM: NUMBER OF ATOMS
4
ITEM: BOX BOUNDS pp pp pp
0.0000000000000000e+00 1.4500000000000000e+01
0.0000000000000000e+00 1.4500000000000000e+01
0.0000000000000000e+00 1.4500000000000000e+01
ITEM: ATOMS id type xs ys zs
1 1 0.994337 0.984826 0.762067
2 1 0.0737801 0.00393635 0.74244
3 1 0.00810668 0.0127739 0.385144
4 1 0.0902593 0.998464 0.372418
ITEM: TIMESTEP
140
ITEM: NUMBER OF ATOMS
4
ITEM: BOX BOUNDS pp pp pp
0.0000000000000000e+00 1.4500000000000000e+01
0.0000000000000000e+00 1.4500000000000000e+01
0.0000000000000000e+00 1.4500000000000000e+01
ITEM: ATOMS id type xs ys zs
1 1 0.990527 0.982708 0.744701
2 1 0.0764256 0.00518983 0.721616
3 1 0.00447331 0.0145861 0.405467
4 1 0.0950564 0.997516 0.390285
ITEM: TIMESTEP
150
ITEM: NUMBER OF ATOMS
4
ITEM: BOX BOUNDS pp pp pp
0.0000000000000000e+00 1.4500000000000000e+01
0.0000000000000000e+00 1.4500000000000000e+01
0.0000000000000000e+00 1.4500000000000000e+01
ITEM: ATOMS id type xs ys zs
1 1 0.987259 0.980744 0.727178
2 1 0.0785302 0.00629045 0.700948
3 1 0.00211302 0.0161501 0.42557
4 1 0.0985804 0.996816 0.408373
ITEM: TIMESTEP
160
ITEM: NUMBER OF ATOMS
4
ITEM: BOX BOUNDS pp pp pp
0.0000000000000000e+00 1.4500000000000000e+01
0.0000000000000000e+00 1.4500000000000000e+01
0.0000000000000000e+00 1.4500000000000000e+01
ITEM: ATOMS id type xs ys zs
1 1 0.987199 0.979681 0.70873
2 1 0.0774271 0.00648923 0.681206
3 1 0.00372664 0.0169157 0.444963
4 1 0.0981305 0.996914 0.42717
ITEM: TIMESTEP
170
ITEM: NUMBER OF ATOMS
4
ITEM: BOX BOUNDS pp pp pp
0.0000000000000000e+00 1.4500000000000000e+01
0.0000000000000000e+00 1.4500000000000000e+01
0.0000000000000000e+00 1.4500000000000000e+01
ITEM: ATOMS id type xs ys zs
1 1 0.990214 0.979527 0.689348
2 1 0.0732482 0.00577877 0.662398
3 1 0.00857598 0.0170004 0.46375
4 1 0.0944449 0.997694 0.446574
ITEM: TIMESTEP
180
ITEM: NUMBER OF ATOMS
4
ITEM: BOX BOUNDS pp pp pp
0.0000000000000000e+00 1.4500000000000000e+01
0.0000000000000000e+00 1.4500000000000000e+01
0.0000000000000000e+00 1.4500000000000000e+01
ITEM: ATOMS id type xs ys zs
1 1 0.993533 0.979457 0.669879
2 1 0.0687656 0.00498421 0.643676
3 1 0.0131072 0.0171665 0.482609
4 1 0.0910774 0.998392 0.465905
ITEM: TIMESTEP
190
ITEM: NUMBER OF ATOMS
4
ITEM: BOX BOUNDS pp pp pp
0.0000000000000000e+00 1.4500000000000000e+01
0.0000000000000000e+00 1.4500000000000000e+01
0.0000000000000000e+00 1.4500000000000000e+01
ITEM: ATOMS id type xs ys zs
1 1 0.994134 0.978446 0.651387
2 1 0.066829 0.00516788 0.623915
3 1 0.0141689 0.0181847 0.502562
4 1 0.0913509 0.998201 0.484204
ITEM: TIMESTEP
200
ITEM: NUMBER OF ATOMS
4
ITEM: BOX BOUNDS pp pp pp
0.0000000000000000e+00 1.4500000000000000e+01
0.0000000000000000e+00 1.4500000000000000e+01
0.0000000000000000e+00 1.4500000000000000e+01
ITEM: ATOMS id type xs ys zs
1 1 0.991523 0.975558 0.635892
2 1 0.0791022 0.00395875 0.643975
3 1 -0.000308457 0.0239635 0.491287
4 1 0.0961665 0.996519 0.490915
ITEM: TIMESTEP
210
ITEM: NUMBER OF ATOMS
4
ITEM: BOX BOUNDS pp pp pp
0.0000000000000000e+00 1.4500000000000000e+01
0.0000000000000000e+00 1.4500000000000000e+01
0.0000000000000000e+00 1.4500000000000000e+01
ITEM: ATOMS id type xs ys zs
1 1 0.990193 0.973278 0.620028
2 1 0.0911209 0.00225824 0.666541
3 1 -0.0117043 0.0285209 0.478773
4 1 0.0968733 0.995943 0.496727
ITEM: TIMESTEP
220
ITEM: NUMBER OF ATOMS
4
ITEM: BOX BOUNDS pp pp pp
0.0000000000000000e+00 1.4500000000000000e+01
0.0000000000000000e+00 1.4500000000000000e+01
0.0000000000000000e+00 1.4500000000000000e+01
ITEM: ATOMS id type xs ys zs
1 1 1.00031 0.973176 0.613452
2 1 0.0912915 -0.00274779 0.682766
3 1 -0.0144455 0.0314445 0.465355
4 1 0.0893298 0.998128 0.500496
ITEM: TIMESTEP
230
ITEM: NUMBER OF ATOMS
4
ITEM: BOX BOUNDS pp pp pp
0.0000000000000000e+00 1.4500000000000000e+01
0.0000000000000000e+00 1.4500000000000000e+01
0.0000000000000000e+00 1.4500000000000000e+01
ITEM: ATOMS id type xs ys zs
1 1 1.02365 0.975118 0.620381
2 1 0.0781401 -0.0113028 0.689305
3 1 -0.00927921 0.0331193 0.451287
4 1 0.0739672 1.00307 0.501096
ITEM: TIMESTEP
240
ITEM: NUMBER OF ATOMS
4
ITEM: BOX BOUNDS pp pp pp
0.0000000000000000e+00 1.4500000000000000e+01
0.0000000000000000e+00 1.4500000000000000e+01
0.0000000000000000e+00 1.4500000000000000e+01
ITEM: ATOMS id type xs ys zs
1 1 0.0465278 0.976274 0.626098
2 1 0.0659783 0.980546 0.696324
3 1 1.00007 0.0339785 0.437379
4 1 0.0539073 0.00920183 0.502268
ITEM: TIMESTEP
250
ITEM: NUMBER OF ATOMS
4
ITEM: BOX BOUNDS pp pp pp
0.0000000000000000e+00 1.4500000000000000e+01
0.0000000000000000e+00 1.4500000000000000e+01
0.0000000000000000e+00 1.4500000000000000e+01
ITEM: ATOMS id type xs ys zs
1 1 0.0676798 0.977485 0.621478
2 1 0.056097 0.972957 0.710826
3 1 1.00924 0.0353139 0.42172
4 1 0.0334663 0.0142444 0.508045
ITEM: TIMESTEP
260
ITEM: NUMBER OF ATOMS
4
ITEM: BOX BOUNDS pp pp pp
0.0000000000000000e+00 1.4500000000000000e+01
0.0000000000000000e+00 1.4500000000000000e+01
0.0000000000000000e+00 1.4500000000000000e+01
ITEM: ATOMS id type xs ys zs
1 1 0.0860002 0.979873 0.613246
2 1 0.0469324 0.965293 0.726573
3 1 1.01835 0.0366778 0.406095
4 1 0.0152031 0.0181564 0.516154
ITEM: TIMESTEP
270
ITEM: NUMBER OF ATOMS
4
ITEM: BOX BOUNDS pp pp pp
0.0000000000000000e+00 1.4500000000000000e+01
0.0000000000000000e+00 1.4500000000000000e+01
0.0000000000000000e+00 1.4500000000000000e+01
ITEM: ATOMS id type xs ys zs
1 1 0.0783037 0.987678 0.608756
2 1 0.0474 0.961507 0.714221
3 1 1.02745 0.0367001 0.397979
4 1 0.0133329 0.0141147 0.541113
ITEM: TIMESTEP
280
ITEM: NUMBER OF ATOMS
4
ITEM: BOX BOUNDS pp pp pp
0.0000000000000000e+00 1.4500000000000000e+01
0.0000000000000000e+00 1.4500000000000000e+01
0.0000000000000000e+00 1.4500000000000000e+01
ITEM: ATOMS id type xs ys zs
1 1 0.0682313 0.994331 0.6101
2 1 0.0505745 0.959076 0.694766
3 1 0.0372926 0.0361862 0.391911
4 1 0.0103843 0.0104071 0.565292
ITEM: TIMESTEP
290
ITEM: NUMBER OF ATOMS
4
ITEM: BOX BOUNDS pp pp pp
0.0000000000000000e+00 1.4500000000000000e+01
0.0000000000000000e+00 1.4500000000000000e+01
0.0000000000000000e+00 1.4500000000000000e+01
ITEM: ATOMS id type xs ys zs
1 1 0.0646361 0.999709 0.615514
2 1 0.062114 0.945546 0.702107
3 1 0.0471389 0.0356694 0.38586
4 1 -0.00740623 0.0190756 0.558588
ITEM: TIMESTEP
300
ITEM: NUMBER OF ATOMS
4
ITEM: BOX BOUNDS pp pp pp
0.0000000000000000e+00 1.4500000000000000e+01
0.0000000000000000e+00 1.4500000000000000e+01
0.0000000000000000e+00 1.4500000000000000e+01
ITEM: ATOMS id type xs ys zs
1 1 0.0614756 1.00326 0.623645
2 1 0.0751009 0.931947 0.711127
3 1 0.0569852 0.0351526 0.379808
4 1 -0.0270789 0.0296441 0.547489
ITEM: TIMESTEP
310
ITEM: NUMBER OF ATOMS
4
ITEM: BOX BOUNDS pp pp pp
0.0000000000000000e+00 1.4500000000000000e+01
0.0000000000000000e+00 1.4500000000000000e+01
0.0000000000000000e+00 1.4500000000000000e+01
ITEM: ATOMS id type xs ys zs
1 1 0.0488879 1.00184 0.631405
2 1 0.085609 0.927261 0.709757
3 1 0.0668314 0.0346357 0.373757
4 1 -0.0348456 0.0362643 0.54715
ITEM: TIMESTEP
320
ITEM: NUMBER OF ATOMS
4
ITEM: BOX BOUNDS pp pp pp
0.0000000000000000e+00 1.4500000000000000e+01
0.0000000000000000e+00 1.4500000000000000e+01
0.0000000000000000e+00 1.4500000000000000e+01
ITEM: ATOMS id type xs ys zs
1 1 0.0264958 0.994746 0.637373
2 1 0.0914088 0.933707 0.69622
3 1 0.0766777 0.0341189 0.367705
4 1 -0.0280996 0.0374284 0.56077
ITEM: TIMESTEP
330
ITEM: NUMBER OF ATOMS
4
ITEM: BOX BOUNDS pp pp pp
0.0000000000000000e+00 1.4500000000000000e+01
0.0000000000000000e+00 1.4500000000000000e+01
0.0000000000000000e+00 1.4500000000000000e+01
ITEM: ATOMS id type xs ys zs
1 1 0.00540674 0.985739 0.643852
2 1 0.0940167 0.943265 0.679726
3 1 0.086524 0.0336021 0.361654
4 1 0.980535 0.0373942 0.576837
ITEM: TIMESTEP
340
ITEM: NUMBER OF ATOMS
4
ITEM: BOX BOUNDS pp pp pp
0.0000000000000000e+00 1.4500000000000000e+01
0.0000000000000000e+00 1.4500000000000000e+01
0.0000000000000000e+00 1.4500000000000000e+01
ITEM: ATOMS id type xs ys zs
1 1 -0.0114268 0.973687 0.653287
2 1 0.093207 0.954312 0.662061
3 1 0.0963702 0.0330852 0.355603
4 1 0.988332 0.0389152 0.591119
ITEM: TIMESTEP
350
ITEM: NUMBER OF ATOMS
4
ITEM: BOX BOUNDS pp pp pp
0.0000000000000000e+00 1.4500000000000000e+01
0.0000000000000000e+00 1.4500000000000000e+01
0.0000000000000000e+00 1.4500000000000000e+01
ITEM: ATOMS id type xs ys zs
1 1 -0.0248728 0.959152 0.66485
2 1 0.0960288 0.960478 0.648078
3 1 0.106217 0.0325684 0.349551
4 1 0.98911 0.047802 0.599589
ITEM: TIMESTEP
360
ITEM: NUMBER OF ATOMS
4
ITEM: BOX BOUNDS pp pp pp
0.0000000000000000e+00 1.4500000000000000e+01
0.0000000000000000e+00 1.4500000000000000e+01
0.0000000000000000e+00 1.4500000000000000e+01
ITEM: ATOMS id type xs ys zs
1 1 -0.0117676 0.954647 0.666375
2 1 0.0837524 0.957155 0.643408
3 1 0.116063 0.0320516 0.3435
4 1 0.978435 0.0561464 0.608786
ITEM: TIMESTEP
370
ITEM: NUMBER OF ATOMS
4
ITEM: BOX BOUNDS pp pp pp
0.0000000000000000e+00 1.4500000000000000e+01
0.0000000000000000e+00 1.4500000000000000e+01
0.0000000000000000e+00 1.4500000000000000e+01
ITEM: ATOMS id type xs ys zs
1 1 0.00237062 0.966076 0.658145
2 1 0.074932 0.949019 0.640488
3 1 0.125909 0.0315347 0.337449
4 1 0.963271 0.0533696 0.625987
ITEM: TIMESTEP
380
ITEM: NUMBER OF ATOMS
4
ITEM: BOX BOUNDS pp pp pp
0.0000000000000000e+00 1.4500000000000000e+01
0.0000000000000000e+00 1.4500000000000000e+01
0.0000000000000000e+00 1.4500000000000000e+01
ITEM: ATOMS id type xs ys zs
1 1 0.00901488 0.981646 0.650539
2 1 0.0755286 0.936445 0.636525
3 1 0.135755 0.0310179 0.331397
4 1 0.946184 0.0508913 0.643608
ITEM: TIMESTEP
390
ITEM: NUMBER OF ATOMS
4
ITEM: BOX BOUNDS pp pp pp
0.0000000000000000e+00 1.4500000000000000e+01
0.0000000000000000e+00 1.4500000000000000e+01
0.0000000000000000e+00 1.4500000000000000e+01
ITEM: ATOMS id type xs ys zs
1 1 0.0114044 0.999864 0.64367
2 1 0.0807911 0.921031 0.631692
3 1 0.145602 0.0305011 0.325346
4 1 0.928686 0.0486039 0.661361
ITEM: TIMESTEP
400
ITEM: NUMBER OF ATOMS
4
ITEM: BOX BOUNDS pp pp pp
0.0000000000000000e+00 1.4500000000000000e+01
0.0000000000000000e+00 1.4500000000000000e+01
0.0000000000000000e+00 1.4500000000000000e+01
ITEM: ATOMS id type xs ys zs
1 1 0.0141115 1.01609 0.637001
2 1 0.0840944 0.908235 0.627171
3 1 0.155448 0.0299843 0.319295
4 1 0.912829 0.0456899 0.678602
ITEM: TIMESTEP
410
ITEM: NUMBER OF ATOMS
4
ITEM: BOX BOUNDS pp pp pp
0.0000000000000000e+00 1.4500000000000000e+01
0.0000000000000000e+00 1.4500000000000000e+01
0.0000000000000000e+00 1.4500000000000000e+01
ITEM: ATOMS id type xs ys zs
1 1 0.0112568 1.01529 0.636893
2 1 0.0722703 0.918525 0.624998
3 1 0.165294 0.0294674 0.313243
4 1 0.917662 0.0367211 0.686935
ITEM: TIMESTEP
420
ITEM: NUMBER OF ATOMS
4
ITEM: BOX BOUNDS pp pp pp
0.0000000000000000e+00 1.4500000000000000e+01
0.0000000000000000e+00 1.4500000000000000e+01
0.0000000000000000e+00 1.4500000000000000e+01
ITEM: ATOMS id type xs ys zs
1 1 0.00532999 1.00643 0.640357
2 1 0.0539386 0.939204 0.623849
3 1 0.17514 0.0289506 0.307192
4 1 0.932074 0.0254126 0.69067
ITEM: TIMESTEP
430
ITEM: NUMBER OF ATOMS
4
ITEM: BOX BOUNDS pp pp pp
0.0000000000000000e+00 1.4500000000000000e+01
0.0000000000000000e+00 1.4500000000000000e+01
0.0000000000000000e+00 1.4500000000000000e+01
ITEM: ATOMS id type xs ys zs
1 1 -0.00203269 0.000230166 0.644009
2 1 0.0471366 0.95086 0.615588
3 1 0.184987 0.0284338 0.301141
4 1 0.936392 0.0204759 0.701331
ITEM: TIMESTEP
440
ITEM: NUMBER OF ATOMS
4
ITEM: BOX BOUNDS pp pp pp
0.0000000000000000e+00 1.4500000000000000e+01
0.0000000000000000e+00 1.4500000000000000e+01
0.0000000000000000e+00 1.4500000000000000e+01
ITEM: ATOMS id type xs ys zs
1 1 -0.011977 -0.00144882 0.648351
2 1 0.0583131 0.948683 0.595672
3 1 0.194833 0.0279169 0.295089
4 1 0.925314 0.0248484 0.722956
ITEM: TIMESTEP
450
ITEM: NUMBER OF ATOMS
4
ITEM: BOX BOUNDS pp pp pp
0.0000000000000000e+00 1.4500000000000000e+01
0.0000000000000000e+00 1.4500000000000000e+01
0.0000000000000000e+00 1.4500000000000000e+01
ITEM: ATOMS id type xs ys zs
1 1 -0.0222203 -0.00323823 0.653798
2 1 0.0682618 0.947237 0.576719
3 1 0.204679 0.0274001 0.289038
4 1 0.915762 0.0286013 0.742513
ITEM: TIMESTEP
460
ITEM: NUMBER OF ATOMS
4
ITEM: BOX BOUNDS pp pp pp
0.0000000000000000e+00 1.4500000000000000e+01
0.0000000000000000e+00 1.4500000000000000e+01
0.0000000000000000e+00 1.4500000000000000e+01
ITEM: ATOMS id type xs ys zs
1 1 -0.0196159 -0.0117287 0.653511
2 1 0.0544356 0.958264 0.578839
3 1 0.214525 0.0268833 0.282987
4 1 0.917138 0.0265818 0.746732
ITEM: TIMESTEP
470
ITEM: NUMBER OF ATOMS
4
ITEM: BOX BOUNDS pp pp pp
0.0000000000000000e+00 1.4500000000000000e+01
0.0000000000000000e+00 1.4500000000000000e+01
0.0000000000000000e+00 1.4500000000000000e+01
ITEM: ATOMS id type xs ys zs
1 1 -0.0131241 -0.0216865 0.652456
2 1 0.0316001 0.973701 0.589161
3 1 0.224372 0.0263665 0.276935
4 1 0.923635 0.0216188 0.743517
ITEM: TIMESTEP
480
ITEM: NUMBER OF ATOMS
4
ITEM: BOX BOUNDS pp pp pp
0.0000000000000000e+00 1.4500000000000000e+01
0.0000000000000000e+00 1.4500000000000000e+01
0.0000000000000000e+00 1.4500000000000000e+01
ITEM: ATOMS id type xs ys zs
1 1 -0.0121326 -0.0301265 0.659959
2 1 0.0123064 0.989109 0.593736
3 1 0.234218 0.0258496 0.270884
4 1 0.932091 0.0151681 0.73749
ITEM: TIMESTEP
490
ITEM: NUMBER OF ATOMS
4
ITEM: BOX BOUNDS pp pp pp
0.0000000000000000e+00 1.4500000000000000e+01
0.0000000000000000e+00 1.4500000000000000e+01
0.0000000000000000e+00 1.4500000000000000e+01
ITEM: ATOMS id type xs ys zs
1 1 0.983836 0.961164 0.67762
2 1 -0.00337623 1.00614 0.589877
3 1 0.244064 0.0253328 0.264833
4 1 0.941958 0.00736069 0.729739
ITEM: TIMESTEP
500
ITEM: NUMBER OF ATOMS
4
ITEM: BOX BOUNDS pp pp pp
0.0000000000000000e+00 1.4500000000000000e+01
0.0000000000000000e+00 1.4500000000000000e+01
0.0000000000000000e+00 1.4500000000000000e+01
ITEM: ATOMS id type xs ys zs
1 1 0.982524 0.952077 0.687653
2 1 -0.0169248 1.02047 0.584268
3 1 0.25391 0.024816 0.258781
4 1 0.946973 0.00263671 0.731366
ITEM: TIMESTEP
510
ITEM: NUMBER OF ATOMS
4
ITEM: BOX BOUNDS pp pp pp
0.0000000000000000e+00 1.4500000000000000e+01
0.0000000000000000e+00 1.4500000000000000e+01
0.0000000000000000e+00 1.4500000000000000e+01
ITEM: ATOMS id type xs ys zs
1 1 0.985114 0.956362 0.665535
2 1 -0.0281746 1.01782 0.596157
3 1 0.263757 0.0242991 0.25273
4 1 0.945787 0.00151684 0.747648
ITEM: TIMESTEP
520
ITEM: NUMBER OF ATOMS
4
ITEM: BOX BOUNDS pp pp pp
0.0000000000000000e+00 1.4500000000000000e+01
0.0000000000000000e+00 1.4500000000000000e+01
0.0000000000000000e+00 1.4500000000000000e+01
ITEM: ATOMS id type xs ys zs
1 1 0.98649 0.961877 0.647685
2 1 -0.0397012 1.01562 0.607175
3 1 0.273603 0.0237823 0.246679
4 1 0.946091 -0.00128059 0.76053
ITEM: TIMESTEP
530
ITEM: NUMBER OF ATOMS
4
ITEM: BOX BOUNDS pp pp pp
0.0000000000000000e+00 1.4500000000000000e+01
0.0000000000000000e+00 1.4500000000000000e+01
0.0000000000000000e+00 1.4500000000000000e+01
ITEM: ATOMS id type xs ys zs
1 1 0.981387 0.970002 0.661208
2 1 -0.0538229 1.02032 0.607278
3 1 0.283449 0.0232655 0.240627
4 1 0.955469 -0.0135845 0.752955
ITEM: TIMESTEP
540
ITEM: NUMBER OF ATOMS
4
ITEM: BOX BOUNDS pp pp pp
0.0000000000000000e+00 1.4500000000000000e+01
0.0000000000000000e+00 1.4500000000000000e+01
0.0000000000000000e+00 1.4500000000000000e+01
ITEM: ATOMS id type xs ys zs
1 1 0.977763 0.975457 0.67953
2 1 0.929639 0.029676 0.598435
3 1 0.293296 0.0227486 0.234576
4 1 0.965785 0.972118 0.749528
ITEM: TIMESTEP
550
ITEM: NUMBER OF ATOMS
4
ITEM: BOX BOUNDS pp pp pp
0.0000000000000000e+00 1.4500000000000000e+01
0.0000000000000000e+00 1.4500000000000000e+01
0.0000000000000000e+00 1.4500000000000000e+01
ITEM: ATOMS id type xs ys zs
1 1 0.973526 0.983794 0.685555
2 1 0.914776 0.0373956 0.59158
3 1 0.303142 0.0222318 0.228525
4 1 0.97504 0.956578 0.75641
ITEM: TIMESTEP
560
ITEM: NUMBER OF ATOMS
4
ITEM: BOX BOUNDS pp pp pp
0.0000000000000000e+00 1.4500000000000000e+01
0.0000000000000000e+00 1.4500000000000000e+01
0.0000000000000000e+00 1.4500000000000000e+01
ITEM: ATOMS id type xs ys zs
1 1 0.967435 0.995578 0.682792
2 1 0.901355 0.0440159 0.586328
3 1 0.312988 0.021715 0.222473
4 1 0.984705 0.938691 0.770476
ITEM: TIMESTEP
570
ITEM: NUMBER OF ATOMS
4
ITEM: BOX BOUNDS pp pp pp
0.0000000000000000e+00 1.4500000000000000e+01
0.0000000000000000e+00 1.4500000000000000e+01
0.0000000000000000e+00 1.4500000000000000e+01
ITEM: ATOMS id type xs ys zs
1 1 0.955779 1.00471 0.679513
2 1 0.89644 0.0448932 0.593068
3 1 0.322834 0.0211982 0.216422
4 1 0.99143 0.929199 0.773066
ITEM: TIMESTEP
580
ITEM: NUMBER OF ATOMS
4
ITEM: BOX BOUNDS pp pp pp
0.0000000000000000e+00 1.4500000000000000e+01
0.0000000000000000e+00 1.4500000000000000e+01
0.0000000000000000e+00 1.4500000000000000e+01
ITEM: ATOMS id type xs ys zs
1 1 0.939552 1.00866 0.677401
2 1 0.901506 0.0388758 0.61423
3 1 0.332681 0.0206813 0.210371
4 1 0.992744 0.93178 0.760068
ITEM: TIMESTEP
590
ITEM: NUMBER OF ATOMS
4
ITEM: BOX BOUNDS pp pp pp
0.0000000000000000e+00 1.4500000000000000e+01
0.0000000000000000e+00 1.4500000000000000e+01
0.0000000000000000e+00 1.4500000000000000e+01
ITEM: ATOMS id type xs ys zs
1 1 0.928039 1.00663 0.683709
2 1 0.90396 0.0353317 0.63081
3 1 0.342527 0.0201645 0.204319
4 1 0.991957 0.937878 0.743231
ITEM: TIMESTEP
600
ITEM: NUMBER OF ATOMS
4
ITEM: BOX BOUNDS pp pp pp
0.0000000000000000e+00 1.4500000000000000e+01
0.0000000000000000e+00 1.4500000000000000e+01
0.0000000000000000e+00 1.4500000000000000e+01
ITEM: ATOMS id type xs ys zs
1 1 0.923688 -0.00367499 0.702428
2 1 0.90123 0.0379032 0.63666
3 1 0.352373 0.0196477 0.198268
4 1 0.989192 0.946124 0.724712
ITEM: TIMESTEP
610
ITEM: NUMBER OF ATOMS
4
ITEM: BOX BOUNDS pp pp pp
0.0000000000000000e+00 1.4500000000000000e+01
0.0000000000000000e+00 1.4500000000000000e+01
0.0000000000000000e+00 1.4500000000000000e+01
ITEM: ATOMS id type xs ys zs
1 1 0.91868 -0.0152106 0.72541
2 1 0.895065 0.0449495 0.636494
3 1 0.362219 0.0191308 0.192217
4 1 0.990518 0.95113 0.707948
ITEM: TIMESTEP
620
ITEM: NUMBER OF ATOMS
4
ITEM: BOX BOUNDS pp pp pp
0.0000000000000000e+00 1.4500000000000000e+01
0.0000000000000000e+00 1.4500000000000000e+01
0.0000000000000000e+00 1.4500000000000000e+01
ITEM: ATOMS id type xs ys zs
1 1 0.907373 -0.0190268 0.741116
2 1 0.888713 0.0485798 0.642685
3 1 0.372066 0.018614 0.186165
4 1 0.998331 0.951833 0.692102
ITEM: TIMESTEP
630
ITEM: NUMBER OF ATOMS
4
ITEM: BOX BOUNDS pp pp pp
0.0000000000000000e+00 1.4500000000000000e+01
0.0000000000000000e+00 1.4500000000000000e+01
0.0000000000000000e+00 1.4500000000000000e+01
ITEM: ATOMS id type xs ys zs
1 1 0.900316 -0.0146882 0.737413
2 1 0.883602 0.0433246 0.663487
3 1 0.381912 0.0180972 0.180114
4 1 1.00065 0.953266 0.681055
ITEM: TIMESTEP
640
ITEM: NUMBER OF ATOMS
4
ITEM: BOX BOUNDS pp pp pp
0.0000000000000000e+00 1.4500000000000000e+01
0.0000000000000000e+00 1.4500000000000000e+01
0.0000000000000000e+00 1.4500000000000000e+01
ITEM: ATOMS id type xs ys zs
1 1 0.913099 -0.0169496 0.722871
2 1 0.869055 0.0454758 0.682948
3 1 0.391758 0.0175803 0.174062
4 1 0.992571 0.953893 0.682187
ITEM: TIMESTEP
650
ITEM: NUMBER OF ATOMS
4
ITEM: BOX BOUNDS pp pp pp
0.0000000000000000e+00 1.4500000000000000e+01
0.0000000000000000e+00 1.4500000000000000e+01
0.0000000000000000e+00 1.4500000000000000e+01
ITEM: ATOMS id type xs ys zs
1 1 0.926313 0.979223 0.710151
2 1 0.848379 0.0532961 0.700596
3 1 0.401604 0.0170635 0.168011
4 1 0.990187 0.950417 0.683311
ITEM: TIMESTEP
660
ITEM: NUMBER OF ATOMS
4
ITEM: BOX BOUNDS pp pp pp
0.0000000000000000e+00 1.4500000000000000e+01
0.0000000000000000e+00 1.4500000000000000e+01
0.0000000000000000e+00 1.4500000000000000e+01
ITEM: ATOMS id type xs ys zs
1 1 0.93039 0.980943 0.699768
2 1 0.829599 0.0591738 0.718579
3 1 0.411451 0.0165467 0.16196
4 1 0.995044 0.943336 0.681763
ITEM: TIMESTEP
670
ITEM: NUMBER OF ATOMS
4
ITEM: BOX BOUNDS pp pp pp
0.0000000000000000e+00 1.4500000000000000e+01
0.0000000000000000e+00 1.4500000000000000e+01
0.0000000000000000e+00 1.4500000000000000e+01
ITEM: ATOMS id type xs ys zs
1 1 0.915145 0.996259 0.693903
2 1 0.824964 0.0542468 0.733654
3 1 0.421297 0.0160299 0.155908
4 1 1.00508 0.933465 0.678603
ITEM: TIMESTEP
680
ITEM: NUMBER OF ATOMS
4
ITEM: BOX BOUNDS pp pp pp
0.0000000000000000e+00 1.4500000000000000e+01
0.0000000000000000e+00 1.4500000000000000e+01
0.0000000000000000e+00 1.4500000000000000e+01
ITEM: ATOMS id type xs ys zs
1 1 0.90472 0.00782904 0.688278
2 1 0.825272 0.0459308 0.746992
3 1 0.431143 0.015513 0.149857
4 1 0.00534673 0.930727 0.676941
ITEM: TIMESTEP
690
ITEM: NUMBER OF ATOMS
4
ITEM: BOX BOUNDS pp pp pp
0.0000000000000000e+00 1.4500000000000000e+01
0.0000000000000000e+00 1.4500000000000000e+01
0.0000000000000000e+00 1.4500000000000000e+01
ITEM: ATOMS id type xs ys zs
1 1 0.912774 0.00492681 0.681535
2 1 0.82927 0.0355931 0.758224
3 1 0.44099 0.0149962 0.143806
4 1 -0.0165513 0.944484 0.678504
ITEM: TIMESTEP
700
ITEM: NUMBER OF ATOMS
4
ITEM: BOX BOUNDS pp pp pp
0.0000000000000000e+00 1.4500000000000000e+01
0.0000000000000000e+00 1.4500000000000000e+01
0.0000000000000000e+00 1.4500000000000000e+01
ITEM: ATOMS id type xs ys zs
1 1 0.915777 0.00415466 0.67915
2 1 0.837436 0.0238789 0.765363
3 1 0.450836 0.0144794 0.137754
4 1 -0.0375662 0.957487 0.679802
ITEM: TIMESTEP
710
ITEM: NUMBER OF ATOMS
4
ITEM: BOX BOUNDS pp pp pp
0.0000000000000000e+00 1.4500000000000000e+01
0.0000000000000000e+00 1.4500000000000000e+01
0.0000000000000000e+00 1.4500000000000000e+01
ITEM: ATOMS id type xs ys zs
1 1 0.90533 0.01319 0.682262
2 1 0.848281 0.0121033 0.768752
3 1 0.460682 0.0139625 0.131703
4 1 -0.0478101 0.960744 0.679352
ITEM: TIMESTEP
720
ITEM: NUMBER OF ATOMS
4
ITEM: BOX BOUNDS pp pp pp
0.0000000000000000e+00 1.4500000000000000e+01
0.0000000000000000e+00 1.4500000000000000e+01
0.0000000000000000e+00 1.4500000000000000e+01
ITEM: ATOMS id type xs ys zs
1 1 0.886167 0.0300618 0.688013
2 1 0.849506 0.00585367 0.779364
3 1 0.470528 0.0134457 0.125652
4 1 -0.0397187 0.950639 0.66904
ITEM: TIMESTEP
730
ITEM: NUMBER OF ATOMS
4
ITEM: BOX BOUNDS pp pp pp
0.0000000000000000e+00 1.4500000000000000e+01
0.0000000000000000e+00 1.4500000000000000e+01
0.0000000000000000e+00 1.4500000000000000e+01
ITEM: ATOMS id type xs ys zs
1 1 0.869117 0.0428151 0.695543
2 1 0.85042 0.00105358 0.788565
3 1 0.480375 0.0129289 0.1196
4 1 -0.0334292 0.943202 0.658361
ITEM: TIMESTEP
740
ITEM: NUMBER OF ATOMS
4
ITEM: BOX BOUNDS pp pp pp
0.0000000000000000e+00 1.4500000000000000e+01
0.0000000000000000e+00 1.4500000000000000e+01
0.0000000000000000e+00 1.4500000000000000e+01
ITEM: ATOMS id type xs ys zs
1 1 0.854436 0.0498923 0.706822
2 1 0.851764 0.998751 0.793399
3 1 0.490221 0.0124121 0.113549
4 1 0.970061 0.938945 0.648299
ITEM: TIMESTEP
750
ITEM: NUMBER OF ATOMS
4
ITEM: BOX BOUNDS pp pp pp
0.0000000000000000e+00 1.4500000000000000e+01
0.0000000000000000e+00 1.4500000000000000e+01
0.0000000000000000e+00 1.4500000000000000e+01
ITEM: ATOMS id type xs ys zs
1 1 0.839697 0.0545716 0.72198
2 1 0.853299 0.998714 0.7943
3 1 0.500067 0.0118952 0.107498
4 1 0.97342 0.93482 0.638291
ITEM: TIMESTEP
760
ITEM: NUMBER OF ATOMS
4
ITEM: BOX BOUNDS pp pp pp
0.0000000000000000e+00 1.4500000000000000e+01
0.0000000000000000e+00 1.4500000000000000e+01
0.0000000000000000e+00 1.4500000000000000e+01
ITEM: ATOMS id type xs ys zs
1 1 0.825005 0.058667 0.738021
2 1 0.854786 0.99926 0.794318
3 1 0.509913 0.0113784 0.101446
4 1 0.976779 0.930695 0.628284
ITEM: TIMESTEP
770
ITEM: NUMBER OF ATOMS
4
ITEM: BOX BOUNDS pp pp pp
0.0000000000000000e+00 1.4500000000000000e+01
0.0000000000000000e+00 1.4500000000000000e+01
0.0000000000000000e+00 1.4500000000000000e+01
ITEM: ATOMS id type xs ys zs
1 1 0.809869 0.0636129 0.753279
2 1 0.856717 0.998956 0.795119
3 1 0.51976 0.0108616 0.095395
4 1 0.980137 0.92657 0.618276
ITEM: TIMESTEP
780
ITEM: NUMBER OF ATOMS
4
ITEM: BOX BOUNDS pp pp pp
0.0000000000000000e+00 1.4500000000000000e+01
0.0000000000000000e+00 1.4500000000000000e+01
0.0000000000000000e+00 1.4500000000000000e+01
ITEM: ATOMS id type xs ys zs
1 1 0.794854 0.0684928 0.768483
2 1 0.858527 0.998718 0.795974
3 1 0.529606 0.0103447 0.0893436
4 1 0.983496 0.922444 0.608268
ITEM: TIMESTEP
790
ITEM: NUMBER OF ATOMS
4
ITEM: BOX BOUNDS pp pp pp
0.0000000000000000e+00 1.4500000000000000e+01
0.0000000000000000e+00 1.4500000000000000e+01
0.0000000000000000e+00 1.4500000000000000e+01
ITEM: ATOMS id type xs ys zs
1 1 0.782229 0.0708255 0.784601
2 1 0.857947 1.00103 0.795915
3 1 0.539452 0.00982791 0.0832923
4 1 0.986855 0.918319 0.598261
ITEM: TIMESTEP
800
ITEM: NUMBER OF ATOMS
4
ITEM: BOX BOUNDS pp pp pp
0.0000000000000000e+00 1.4500000000000000e+01
0.0000000000000000e+00 1.4500000000000000e+01
0.0000000000000000e+00 1.4500000000000000e+01
ITEM: ATOMS id type xs ys zs
1 1 0.773851 0.0692528 0.801338
2 1 0.853119 1.00724 0.795237
3 1 0.549298 0.00931108 0.077241
4 1 0.990213 0.914194 0.588253
ITEM: TIMESTEP
810
ITEM: NUMBER OF ATOMS
4
ITEM: BOX BOUNDS pp pp pp
0.0000000000000000e+00 1.4500000000000000e+01
0.0000000000000000e+00 1.4500000000000000e+01
0.0000000000000000e+00 1.4500000000000000e+01
ITEM: ATOMS id type xs ys zs
1 1 0.769105 0.0647947 0.817868
2 1 0.844661 0.0163417 0.794767
3 1 0.559145 0.00879425 0.0711896
4 1 0.993572 0.910069 0.578245
ITEM: TIMESTEP
820
ITEM: NUMBER OF ATOMS
4
ITEM: BOX BOUNDS pp pp pp
0.0000000000000000e+00 1.4500000000000000e+01
0.0000000000000000e+00 1.4500000000000000e+01