  254  254    1    1
  0.2268316E+02  0.1514622E-08  0.1514622E-08  0.2900000E-08  0.5000000E-15
   1.0000000000000000E-004
  CAR 
 NiAl                                    
   2532      4   1519
 
  0.1262379E-14  0.1262379E-14  0.1262379E-14  0.2500000E+00
    1      -25.806069   1.000000
    2      -15.125611   1.000000
    3       -9.104924   1.000000
    4       -8.594763   1.000000
    5       -8.310684   1.000000
    6       -8.195486   1.000000
    7       -8.195097   1.000000
    8       -8.195033   1.000000
    9       -8.194989   1.000000
   10       -8.194877   1.000000
   11       -8.145319   1.000000
   12       -7.731604   1.000000
   13       -7.692580   1.000000
   14       -7.689208   1.000000
   15       -7.689106   1.000000
   16       -7.688944   1.000000
   17       -7.688851   1.000000
   18       -7.643368   1.000000
   19       -7.337488   1.000000
   20       -7.073581   1.000000
   21       -6.901226   1.000000
   22       -6.900733   1.000000
   23       -6.900690   1.000000
   24       -6.900408   1.000000
   25       -6.873917   1.000000
   26       -6.846149   1.000000
   27       -6.689790   1.000000
   28       -6.554881   1.000000
   29       -6.554640   1.000000
   30       -6.554461   1.000000
   31       -6.554316   1.000000
   32       -6.552577   1.000000
   33       -6.551400   1.000000
   34       -6.132820   1.000000
   35       -6.132052   1.000000
   36       -6.131740   1.000000
   37       -6.131592   1.000000
   38       -6.128133   1.000000
   39       -6.125934   1.000000
   40       -5.929739   1.000000
   41       -5.928982   1.000000
   42       -5.928973   1.000000
   43       -5.928719   1.000000
   44       -5.925123   1.000000
   45       -5.924233   1.000000
   46       -5.923963   1.000000
   47       -5.923956   1.000000
   48       -5.923867   1.000000
   49       -5.923699   1.000000
   50       -5.920975   1.000000
   51       -5.878166   1.000000
   52       -5.675575   1.000000
   53       -5.589960   1.000000
   54       -5.589107   1.000000
   55       -5.588978   1.000000
   56       -5.588545   1.000000
   57       -5.586923   1.000000
   58       -5.586238   1.000000
   59       -5.500655   1.000000
   60       -5.499123   1.000000
   61       -5.498672   1.000000
   62       -5.498492   1.000000
   63       -5.494573   1.000000
   64       -5.486661   1.000000
   65       -5.133330   1.000000
   66       -5.131937   1.000000
   67       -5.131741   1.000000
   68       -5.131223   1.000000
   69       -5.128966   1.000000
   70       -5.128942   1.000000
   71       -5.030282   1.000000
   72       -4.979816   1.000000
   73       -4.978263   1.000000
   74       -4.978225   1.000000
   75       -4.978021   1.000000
   76       -4.975558   1.000000
   77       -4.937423   1.000000
   78       -4.841480   1.000000
   79       -4.786223   1.000000
   80       -4.786145   1.000000
   81       -4.786032   1.000000
   82       -4.770406   1.000000
   83       -4.768233   1.000000
   84       -4.767680   1.000000
   85       -4.767533   1.000000
   86       -4.764390   1.000000
   87       -4.753767   1.000000
   88       -4.666139   1.000000
   89       -4.664239   1.000000
   90       -4.664185   1.000000
   91       -4.663658   1.000000
   92       -4.661528   1.000000
   93       -4.659154   1.000000
   94       -4.630253   1.000000
   95       -4.630224   1.000000
   96       -4.630022   1.000000
   97       -4.554430   1.000000
   98       -4.554365   1.000000
   99       -4.554279   1.000000
  100       -4.553948   1.000000
  101       -4.553921   1.000000
  102       -4.553904   1.000000
  103       -4.553844   1.000000
  104       -4.553835   1.000000
  105       -4.553767   1.000000
  106       -4.553649   1.000000
  107       -4.553638   1.000000
  108       -4.553540   1.000000
  109       -4.508476   1.000000
  110       -4.508283   1.000000
  111       -4.508026   1.000000
  112       -4.422927   1.000000
  113       -4.421995   1.000000
  114       -4.421782   1.000000
  115       -4.402533   1.000000
  116       -4.400146   1.000000
  117       -4.400032   1.000000
  118       -4.399924   1.000000
  119       -4.399755   1.000000
  120       -4.379069   1.000000
  121       -4.356814   1.000000
  122       -4.356732   1.000000
  123       -4.356089   1.000000
  124       -4.355417   1.000000
  125       -4.355411   1.000000
  126       -4.355391   1.000000
  127       -4.355356   1.000000
  128       -4.355338   1.000000
  129       -4.355335   1.000000
  130       -4.355229   1.000000
  131       -4.354948   1.000000
  132       -4.354823   1.000000
  133       -4.321955   1.000000
  134       -4.321839   1.000000
  135       -4.321647   1.000000
  136       -4.321272   1.000000
  137       -4.321125   1.000000
  138       -4.321054   1.000000
  139       -4.320999   1.000000
  140       -4.320950   1.000000
  141       -4.320790   1.000000
  142       -4.320661   1.000000
  143       -4.320588   1.000000
  144       -4.320370   1.000000
  145       -4.277435   1.000000
  146       -4.276324   1.000000
  147       -4.276220   1.000000
  148       -4.276177   1.000000
  149       -4.276000   1.000000
  150       -4.268588   1.000000
  151       -4.244215   1.000000
  152       -4.240400   1.000000
  153       -4.240309   1.000000
  154       -4.240151   1.000000
  155       -4.238664   1.000000
  156       -4.233192   1.000000
  157       -4.220589   1.000000
  158       -4.220354   1.000000
  159       -4.219385   1.000000
  160       -4.185675   1.000000
  161       -4.185048   1.000000
  162       -4.184774   1.000000
  163       -4.184289   1.000000
  164       -4.183693   1.000000
  165       -4.183204   1.000000
  166       -4.183079   1.000000
  167       -4.182776   1.000000
  168       -4.182702   1.000000
  169       -4.182674   1.000000
  170       -4.182576   1.000000
  171       -4.181840   1.000000
  172       -4.116265   1.000000
  173       -4.113640   1.000000
  174       -4.112942   1.000000
  175       -4.112912   1.000000
  176       -4.111369   1.000000
  177       -4.102566   1.000000
  178       -4.073849   1.000000
  179       -4.073694   1.000000
  180       -4.073524   1.000000
  181       -4.015488   1.000000
  182       -4.005677   1.000000
  183       -4.005383   1.000000
  184       -3.988104   1.000000
  185       -3.985283   1.000000
  186       -3.984392   1.000000
  187       -3.984230   1.000000
  188       -3.983860   1.000000
  189       -3.983462   1.000000
  190       -3.983347   1.000000
  191       -3.982959   1.000000
  192       -3.982855   1.000000
  193       -3.982771   1.000000
  194       -3.982727   1.000000
  195       -3.981663   1.000000
  196       -3.922496   1.000000
  197       -3.920225   1.000000
  198       -3.919346   1.000000
  199       -3.874159   1.000000
  200       -3.867252   1.000000
  201       -3.866975   1.000000
  202       -3.864091   1.000000
  203       -3.863727   1.000000
  204       -3.863668   1.000000
  205       -3.863526   1.000000
  206       -3.862098   1.000000
  207       -3.858172   1.000000
  208       -3.794901   1.000000
  209       -3.794371   1.000000
  210       -3.794315   1.000000
  211       -3.793930   1.000000
  212       -3.793819   1.000000
  213       -3.793792   1.000000
  214       -3.793669   1.000000
  215       -3.793651   1.000000
  216       -3.793548   1.000000
  217       -3.793487   1.000000
  218       -3.793425   1.000000
  219       -3.793347   1.000000
  220       -3.789157   1.000000
  221       -3.788281   1.000000
  222       -3.788258   1.000000
  223       -3.787603   1.000000
  224       -3.787473   1.000000
  225       -3.786760   1.000000
  226       -3.743755   1.000000
  227       -3.736431   1.000000
  228       -3.736426   1.000000
  229       -3.735451   1.000000
  230       -3.735030   1.000000
  231       -3.734698   1.000000
  232       -3.734570   1.000000
  233       -3.734499   1.000000
  234       -3.734412   1.000000
  235       -3.734395   1.000000
  236       -3.733917   1.000000
  237       -3.733078   1.000000
  238       -3.713605   1.000000
  239       -3.712218   1.000000
  240       -3.711733   1.000000
  241       -3.711702   1.000000
  242       -3.711499   1.000000
  243       -3.707984   1.000000
  244       -3.672803   1.000000
  245       -3.672310   1.000000
  246       -3.672255   1.000000
  247       -3.672231   1.000000
  248       -3.671606   1.000000
  249       -3.671112   1.000000
  250       -3.668695   1.000000
  251       -3.668550   1.000000
  252       -3.668352   1.000000
  253       -3.668301   1.000000
  254       -3.659998   1.000000
  255       -3.659939   1.000000
  256       -3.609883   1.000000
  257       -3.608383   1.000000
  258       -3.608373   1.000000
  259       -3.605985   1.000000
  260       -3.605804   1.000000
  261       -3.605770   1.000000
  262       -3.605656   1.000000
  263       -3.605560   1.000000
  264       -3.605482   1.000000
  265       -3.605395   1.000000
  266       -3.605297   1.000000
  267       -3.605166   1.000000
  268       -3.598716   1.000000
  269       -3.598320   1.000000
  270       -3.597926   1.000000
  271       -3.573681   1.000000
  272       -3.573126   1.000000
  273       -3.572472   1.000000
  274       -3.572359   1.000000
  275       -3.555467   1.000000
  276       -3.552328   1.000000
  277       -3.551635   1.000000
  278       -3.550619   1.000000
  279       -3.550183   1.000000
  280       -3.549165   1.000000
  281       -3.538830   1.000000
  282       -3.538663   1.000000
  283       -3.528691   1.000000
  284       -3.528484   1.000000
  285       -3.528428   1.000000
  286       -3.528347   1.000000
  287       -3.526684   1.000000
  288       -3.526492   1.000000
  289       -3.525077   1.000000
  290       -3.523952   1.000000
  291       -3.523577   1.000000
  292       -3.523319   1.000000
  293       -3.523166   1.000000
  294       -3.521454   1.000000
  295       -3.459254   1.000000
  296       -3.458944   1.000000
  297       -3.456228   1.000000
  298       -3.454810   1.000000
  299       -3.454692   1.000000
  300       -3.448626   1.000000
  301       -3.448457   1.000000
  302       -3.447719   1.000000
  303       -3.447368   1.000000
  304       -3.447238   1.000000
  305       -3.447182   1.000000
  306       -3.447021   1.000000
  307       -3.446840   1.000000
  308       -3.446602   1.000000
  309       -3.445264   1.000000
  310       -3.445226   1.000000
  311       -3.376462   1.000000
  312       -3.376035   1.000000
  313       -3.375836   1.000000
  314       -3.375669   1.000000
  315       -3.375499   1.000000
  316       -3.375365   1.000000
  317       -3.354859   1.000000
  318       -3.346020   1.000000
  319       -3.344981   1.000000
  320       -3.340172   1.000000
  321       -3.339764   1.000000
  322       -3.339651   1.000000
  323       -3.339527   1.000000
  324       -3.339471   1.000000
  325       -3.339335   1.000000
  326       -3.339139   1.000000
  327       -3.338996   1.000000
  328       -3.338795   1.000000
  329       -3.330454   1.000000
  330       -3.329428   1.000000
  331       -3.329365   1.000000
  332       -3.329003   1.000000
  333       -3.328941   1.000000
  334       -3.328597   1.000000
  335       -3.324969   1.000000
  336       -3.323423   1.000000
  337       -3.323330   1.000000
  338       -3.322445   1.000000
  339       -3.321917   1.000000
  340       -3.318213   1.000000
  341       -3.239238   1.000000
  342       -3.236496   1.000000
  343       -3.233004   1.000000
  344       -3.198405   1.000000
  345       -3.196232   1.000000
  346       -3.195837   1.000000
  347       -3.194247   1.000000
  348       -3.194088   1.000000
  349       -3.193425   1.000000
  350       -3.183314   1.000000
  351       -3.182984   1.000000
  352       -3.176318   1.000000
  353       -3.164627   1.000000
  354       -3.164391   1.000000
  355       -3.161686   1.000000
  356       -3.160711   1.000000
  357       -3.159884   1.000000
  358       -3.159422   1.000000
  359       -3.159196   1.000000
  360       -3.159078   1.000000
  361       -3.158776   1.000000
  362       -3.158441   1.000000
  363       -3.156687   1.000000
  364       -3.150842   1.000000
  365       -3.150319   1.000000
  366       -3.094682   1.000000
  367       -3.091180   1.000000
  368       -3.090227   1.000000
  369       -3.089288   1.000000
  370       -3.087924   1.000000
  371       -3.084843   1.000000
  372       -3.067590   1.000000
  373       -3.064583   1.000000
  374       -3.063712   1.000000
  375       -3.063088   1.000000
  376       -3.062957   1.000000
  377       -3.062869   1.000000
  378       -3.062698   1.000000
  379       -3.062617   1.000000
  380       -3.062285   1.000000
  381       -3.062215   1.000000
  382       -3.062143   1.000000
  383       -3.061606   1.000000
  384       -3.022739   1.000000
  385       -3.018272   1.000000
  386       -3.011990   1.000000
  387       -3.011616   1.000000
  388       -3.011219   1.000000
  389       -3.011015   1.000000
  390       -3.010820   1.000000
  391       -3.010747   1.000000
  392       -3.010710   1.000000
  393       -3.010455   1.000000
  394       -3.009887   1.000000
  395       -3.009580   1.000000
  396       -2.957856   1.000000
  397       -2.956188   1.000000
  398       -2.956139   1.000000
  399       -2.955655   1.000000
  400       -2.955614   1.000000
  401       -2.955264   1.000000
  402       -2.910704   1.000000
  403       -2.899880   1.000000
  404       -2.896967   1.000000
  405       -2.896693   1.000000
  406       -2.896279   1.000000
  407       -2.892829   1.000000
  408       -2.887259   1.000000
  409       -2.887012   1.000000
  410       -2.886686   1.000000
  411       -2.886554   1.000000
  412       -2.886502   1.000000
  413       -2.885180   1.000000
  414       -2.867849   1.000000
  415       -2.860509   1.000000
  416       -2.860426   1.000000
  417       -2.860109   1.000000
  418       -2.860093   1.000000
  419       -2.859797   1.000000
  420       -2.859409   1.000000
  421       -2.858354   1.000000
  422       -2.854276   1.000000
  423       -2.853962   1.000000
  424       -2.853469   1.000000
  425       -2.851023   1.000000
  426       -2.839870   1.000000
  427       -2.836341   1.000000
  428       -2.830747   1.000000
  429       -2.830606   1.000000
  430       -2.829968   1.000000
  431       -2.828877   1.000000
  432       -2.828680   1.000000
  433       -2.828531   1.000000
  434       -2.826845   1.000000
  435       -2.826541   1.000000
  436       -2.826451   1.000000
  437       -2.826303   1.000000
  438       -2.826142   1.000000
  439       -2.826065   1.000000
  440       -2.825842   1.000000
  441       -2.825817   1.000000
  442       -2.825455   1.000000
  443       -2.821948   1.000000
  444       -2.772411   1.000000
  445       -2.768304   1.000000
  446       -2.761981   1.000000
  447       -2.755396   1.000000
  448       -2.754711   1.000000
  449       -2.754377   1.000000
  450       -2.753700   1.000000
  451       -2.753567   1.000000
  452       -2.753318   1.000000
  453       -2.753268   1.000000
  454       -2.753166   1.000000
  455       -2.753050   1.000000
  456       -2.752885   1.000000
  457       -2.752808   1.000000
  458       -2.752581   1.000000
  459       -2.751910   1.000000
  460       -2.750183   1.000000
  461       -2.750024   1.000000
  462       -2.749757   1.000000
  463       -2.749171   1.000000
  464       -2.748032   1.000000
  465       -2.713977   1.000000
  466       -2.712793   1.000000
  467       -2.712530   1.000000
  468       -2.712291   1.000000
  469       -2.683431   1.000000
  470       -2.664693   1.000000
  471       -2.663830   1.000000
  472       -2.663065   1.000000
  473       -2.662553   1.000000
  474       -2.660848   1.000000
  475       -2.660152   1.000000
  476       -2.659907   1.000000
  477       -2.659400   1.000000
  478       -2.658768   1.000000
  479       -2.658556   1.000000
  480       -2.658375   1.000000
  481       -2.657547   1.000000
  482       -2.656980   1.000000
  483       -2.656612   1.000000
  484       -2.656573   1.000000
  485       -2.656173   1.000000
  486       -2.655901   1.000000
  487       -2.655809   1.000000
  488       -2.655489   1.000000
  489       -2.653424   1.000000
  490       -2.653042   1.000000
  491       -2.651602   1.000000
  492       -2.650646   1.000000
  493       -2.650514   1.000000
  494       -2.650496   1.000000
  495       -2.650415   1.000000
  496       -2.650384   1.000000
  497       -2.650194   1.000000
  498       -2.650151   1.000000
  499       -2.650080   1.000000
  500       -2.649625   1.000000
  501       -2.606613   1.000000
  502       -2.598816   1.000000
  503       -2.598765   1.000000
  504       -2.598573   1.000000
  505       -2.598436   1.000000
  506       -2.594891   1.000000
  507       -2.593392   1.000000
  508       -2.592112   1.000000
  509       -2.590320   1.000000
  510       -2.590042   1.000000
  511       -2.589957   1.000000
  512       -2.589335   1.000000
  513       -2.575422   1.000000
  514       -2.566793   1.000000
  515       -2.564554   1.000000
  516       -2.564437   1.000000
  517       -2.560921   1.000000
  518       -2.554124   1.000000
  519       -2.546505   1.000000
  520       -2.538984   1.000000
  521       -2.537443   1.000000
  522       -2.535387   1.000000
  523       -2.534310   1.000000
  524       -2.515246   1.000000
  525       -2.514147   1.000000
  526       -2.503945   1.000000
  527       -2.492501   1.000000
  528       -2.491880   1.000000
  529       -2.491842   1.000000
  530       -2.491748   1.000000
  531       -2.491452   1.000000
  532       -2.491340   1.000000
  533       -2.491102   1.000000
  534       -2.490956   1.000000
  535       -2.490534   1.000000
  536       -2.490214   1.000000
  537       -2.486360   1.000000
  538       -2.480893   1.000000
  539       -2.478215   1.000000
  540       -2.475906   1.000000
  541       -2.474352   1.000000
  542       -2.467392   1.000000
  543       -2.451527   1.000000
  544       -2.450982   1.000000
  545       -2.448170   1.000000
  546       -2.436514   1.000000
  547       -2.435341   1.000000
  548       -2.433763   1.000000
  549       -2.433446   1.000000
  550       -2.433151   1.000000
  551       -2.428917   1.000000
  552       -2.424621   1.000000
  553       -2.423127   1.000000
  554       -2.421108   1.000000
  555       -2.420656   1.000000
  556       -2.420398   1.000000
  557       -2.420013   1.000000
  558       -2.419539   1.000000
  559       -2.419405   1.000000
  560       -2.419358   1.000000
  561       -2.419233   1.000000
  562       -2.418866   1.000000
  563       -2.418729   1.000000
  564       -2.416386   1.000000
  565       -2.415058   1.000000
  566       -2.411162   1.000000
  567       -2.410965   1.000000
  568       -2.410822   1.000000
  569       -2.409695   1.000000
  570       -2.409420   1.000000
  571       -2.409356   1.000000
  572       -2.393148   1.000000
  573       -2.367752   1.000000
  574       -2.365946   1.000000
  575       -2.361290   1.000000
  576       -2.360110   1.000000
  577       -2.359085   1.000000
  578       -2.357518   1.000000
  579       -2.357266   1.000000
  580       -2.355899   1.000000
  581       -2.355714   1.000000
  582       -2.353482   1.000000
  583       -2.349504   1.000000
  584       -2.348010   1.000000
  585       -2.344342   1.000000
  586       -2.344111   1.000000
  587       -2.343964   1.000000
  588       -2.342690   1.000000
  589       -2.325074   1.000000
  590       -2.321734   1.000000
  591       -2.318409   1.000000
  592       -2.316304   1.000000
  593       -2.315731   1.000000
  594       -2.315663   1.000000
  595       -2.312689   1.000000
  596       -2.304477   1.000000
  597       -2.302928   1.000000
  598       -2.302660   1.000000
  599       -2.302493   1.000000
  600       -2.302280   1.000000
  601       -2.302243   1.000000
  602       -2.301442   1.000000
  603       -2.299017   1.000000
  604       -2.297372   1.000000
  605       -2.284190   1.000000
  606       -2.283753   1.000000
  607       -2.283551   1.000000
  608       -2.283451   1.000000
  609       -2.283376   1.000000
  610       -2.283121   1.000000
  611       -2.279937   1.000000
  612       -2.268531   1.000000
  613       -2.267858   1.000000
  614       -2.254995   1.000000
  615       -2.246639   1.000000
  616       -2.245122   1.000000
  617       -2.243508   1.000000
  618       -2.243190   1.000000
  619       -2.242309   1.000000
  620       -2.238690   1.000000
  621       -2.238558   1.000000
  622       -2.237992   1.000000
  623       -2.234267   1.000000
  624       -2.227671   1.000000
  625       -2.223241   1.000000
  626       -2.222573   1.000000
  627       -2.208651   1.000000
  628       -2.208573   1.000000
  629       -2.208465   1.000000
  630       -2.208432   1.000000
  631       -2.208285   1.000000
  632       -2.208160   1.000000
  633       -2.201455   1.000000
  634       -2.200249   1.000000
  635       -2.194073   1.000000
  636       -2.185546   1.000000
  637       -2.185445   1.000000
  638       -2.185179   1.000000
  639       -2.184834   1.000000
  640       -2.184123   1.000000
  641       -2.184010   1.000000
  642       -2.174603   1.000000
  643       -2.174122   1.000000
  644       -2.173191   1.000000
  645       -2.163813   1.000000
  646       -2.161743   1.000000
  647       -2.161004   1.000000
  648       -2.160695   1.000000
  649       -2.160685   1.000000
  650       -2.160226   1.000000
  651       -2.159372   1.000000
  652       -2.158543   1.000000
  653       -2.157682   1.000000
  654       -2.157648   1.000000
  655       -2.157124   1.000000
  656       -2.156893   1.000000
  657       -2.156639   1.000000
  658       -2.156503   1.000000
  659       -2.156354   1.000000
  660       -2.154995   1.000000
  661       -2.154137   1.000000
  662       -2.150676   1.000000
  663       -2.149254   1.000000
  664       -2.147421   1.000000
  665       -2.147217   1.000000
  666       -2.147036   1.000000
  667       -2.145959   1.000000
  668       -2.144484   1.000000
  669       -2.143104   1.000000
  670       -2.142196   1.000000
  671       -2.141628   1.000000
  672       -2.139762   1.000000
  673       -2.114083   1.000000
  674       -2.111375   1.000000
  675       -2.100081   1.000000
  676       -2.096307   1.000000
  677       -2.095943   1.000000
  678       -2.095319   1.000000
  679       -2.094461   1.000000
  680       -2.093170   1.000000
  681       -2.085465   1.000000
  682       -2.074877   1.000000
  683       -2.074631   1.000000
  684       -2.073805   1.000000
  685       -2.073399   1.000000
  686       -2.073362   1.000000
  687       -2.073183   1.000000
  688       -2.048826   1.000000
  689       -2.048813   1.000000
  690       -2.047557   1.000000
  691       -2.047478   1.000000
  692       -2.045814   1.000000
  693       -2.045608   1.000000
  694       -2.044672   1.000000
  695       -2.044090   1.000000
  696       -2.044071   1.000000
  697       -2.043847   1.000000
  698       -2.043751   1.000000
  699       -2.043267   1.000000
  700       -2.042731   1.000000
  701       -2.040979   1.000000
  702       -2.040716   1.000000
  703       -2.040652   1.000000
  704       -2.031797   1.000000
  705       -2.031617   1.000000
  706       -2.031130   1.000000
  707       -2.029842   1.000000
  708       -2.029729   1.000000
  709       -2.029392   1.000000
  710       -2.029288   1.000000
  711       -2.029232   1.000000
  712       -2.029135   1.000000
  713       -2.029128   1.000000
  714       -2.028929   1.000000
  715       -2.028760   1.000000
  716       -2.026817   1.000000
  717       -2.026628   1.000000
  718       -2.003751   1.000000
  719       -2.003404   1.000000
  720       -2.003373   1.000000
  721       -2.003222   1.000000
  722       -2.003180   1.000000
  723       -2.002905   1.000000
  724       -1.997906   1.000000
  725       -1.997702   1.000000
  726       -1.981350   1.000000
  727       -1.980079   1.000000
  728       -1.978497   1.000000
  729       -1.974177   1.000000
  730       -1.972554   1.000000
  731       -1.969581   1.000000
  732       -1.958774   1.000000
  733       -1.958242   1.000000
  734       -1.957892   1.000000
  735       -1.957723   1.000000
  736       -1.957650   1.000000
  737       -1.957452   1.000000
  738       -1.957237   1.000000
  739       -1.957178   1.000000
  740       -1.956321   1.000000
  741       -1.948277   1.000000
  742       -1.916206   1.000000
  743       -1.914863   1.000000
  744       -1.914008   1.000000
  745       -1.913810   1.000000
  746       -1.913567   1.000000
  747       -1.913437   1.000000
  748       -1.911181   1.000000
  749       -1.910442   1.000000
  750       -1.908855   1.000000
  751       -1.907543   1.000000
  752       -1.907139   1.000000
  753       -1.902956   1.000000
  754       -1.897469   1.000000
  755       -1.886591   1.000000
  756       -1.861880   1.000000
  757       -1.860423   1.000000
  758       -1.860023   1.000000
  759       -1.859186   1.000000
  760       -1.858818   1.000000
  761       -1.858637   1.000000
  762       -1.858611   1.000000
  763       -1.858521   1.000000
  764       -1.857998   1.000000
  765       -1.857621   1.000000
  766       -1.856524   1.000000
  767       -1.856070   1.000000
  768       -1.855357   1.000000
  769       -1.855318   1.000000
  770       -1.854904   1.000000
  771       -1.851965   1.000000
  772       -1.849562   1.000000
  773       -1.849507   1.000000
  774       -1.848829   1.000000
  775       -1.848746   1.000000
  776       -1.848325   1.000000
  777       -1.846059   1.000000
  778       -1.822237   1.000000
  779       -1.820754   1.000000
  780       -1.817347   1.000000
  781       -1.817069   1.000000
  782       -1.816081   1.000000
  783       -1.813700   1.000000
  784       -1.812681   1.000000
  785       -1.812303   1.000000
  786       -1.812074   1.000000
  787       -1.811905   1.000000
  788       -1.811798   1.000000
  789       -1.796554   1.000000
  790       -1.793851   1.000000
  791       -1.792965   1.000000
  792       -1.790548   1.000000
  793       -1.789266   1.000000
  794       -1.788214   1.000000
  795       -1.787567   1.000000
  796       -1.787109   1.000000
  797       -1.786989   1.000000
  798       -1.781447   1.000000
  799       -1.775863   1.000000
  800       -1.773953   1.000000
  801       -1.769932   1.000000
  802       -1.768525   1.000000
  803       -1.767866   1.000000
  804       -1.767247   1.000000
  805       -1.766705   1.000000
  806       -1.766240   1.000000
  807       -1.762564   1.000000
  808       -1.759963   1.000000
  809       -1.759934   1.000000
  810       -1.759318   1.000000
  811       -1.758736   1.000000
  812       -1.758526   1.000000
  813       -1.758164   1.000000
  814       -1.758023   1.000000
  815       -1.756834   1.000000
  816       -1.751537   1.000000
  817       -1.735004   1.000000
  818       -1.731422   1.000000
  819       -1.723939   1.000000
  820       -1.721586   1.000000
  821       -1.721533   1.000000
  822       -1.720200   1.000000
  823       -1.719736   1.000000
  824       -1.719586   1.000000
  825       -1.719236   1.000000
  826       -1.719001   1.000000
  827       -1.718886   1.000000
  828       -1.716544   1.000000
  829       -1.692784   1.000000
  830       -1.690598   1.000000
  831       -1.688925   1.000000
  832       -1.686664   1.000000
  833       -1.685561   1.000000
  834       -1.685236   1.000000
  835       -1.685146   1.000000
  836       -1.685088   1.000000
  837       -1.684799   1.000000
  838       -1.682189   1.000000
  839       -1.681889   1.000000
  840       -1.681597   1.000000
  841       -1.681361   1.000000
  842       -1.680805   1.000000
  843       -1.680497   1.000000
  844       -1.673395   1.000000
  845       -1.671906   1.000000
  846       -1.670496   1.000000
  847       -1.669330   1.000000
  848       -1.669096   1.000000
  849       -1.668680   1.000000
  850       -1.667411   1.000000
  851       -1.666889   1.000000
  852       -1.662138   1.000000
  853       -1.661737   1.000000
  854       -1.661486   1.000000
  855       -1.661084   1.000000
  856       -1.659312   1.000000
  857       -1.659090   1.000000
  858       -1.658569   1.000000
  859       -1.656665   1.000000
  860       -1.655602   1.000000
  861       -1.640208   1.000000
  862       -1.637515   1.000000
  863       -1.636786   1.000000
  864       -1.628099   1.000000
  865       -1.605669   1.000000
  866       -1.602390   1.000000
  867       -1.601768   1.000000
  868       -1.601090   1.000000
  869       -1.600586   1.000000
  870       -1.596493   1.000000
  871       -1.581035   1.000000
  872       -1.578371   1.000000
  873       -1.574244   1.000000
  874       -1.572965   1.000000
  875       -1.572539   1.000000
  876       -1.571081   1.000000
  877       -1.571017   1.000000
  878       -1.570680   1.000000
  879       -1.570675   1.000000
  880       -1.570267   1.000000
  881       -1.569619   1.000000
  882       -1.569369   1.000000
  883       -1.559285   1.000000
  884       -1.555403   1.000000
  885       -1.552361   1.000000
  886       -1.549913   1.000000
  887       -1.549517   1.000000
  888       -1.548703   1.000000
  889       -1.501991   1.000000
  890       -1.500830   1.000000
  891       -1.498342   1.000000
  892       -1.497909   1.000000
  893       -1.497744   1.000000
  894       -1.497694   1.000000
  895       -1.483345   1.000000
  896       -1.454395   1.000000
  897       -1.450771   1.000000
  898       -1.447614   1.000000
  899       -1.446437   1.000000
  900       -1.445709   1.000000
  901       -1.443682   1.000000