 running on    1 total cores
 distrk:  each k-point on    1 cores,    1 groups
 distr:  one band on    1 cores,    1 groups
 OpenACC runtime initialized ...    1 GPUs detected
 vasp.6.2.1 16May21 (build Jun 16 2021 03:23:30) complex                         
 POSCAR found type information on POSCAR NiO 
 POSCAR found :  2 types and     254 ions
 scaLAPACK will be used selectively (only on CPU)
 LDA part: xc-table for Pade appr. of Perdew
 POSCAR found type information on POSCAR NiO 
 POSCAR found :  2 types and     254 ions
 POSCAR, INCAR and KPOINTS ok, starting setup
 FFT: planning ...
 WAVECAR not read
 entering main loop
       N       E                     dE             d eps       ncg     rms          rms(c)
DAV:   1     0.223520478230E+05    0.22352E+05   -0.98562E+05 12200   0.134E+03
DAV:   2     0.985396406951E+02   -0.22254E+05   -0.21262E+05 12152   0.469E+02
DAV:   3    -0.133375548026E+04   -0.14323E+04   -0.12038E+04 13504   0.131E+02
DAV:   4    -0.155755138405E+04   -0.22380E+03   -0.18929E+03 21464   0.490E+01
DAV:   5    -0.157042396645E+04   -0.12873E+02   -0.11733E+02 20480   0.118E+01    0.145E+02
DAV:   6    -0.194438409874E+04   -0.37396E+03   -0.27547E+03 15976   0.169E+02    0.288E+02
DAV:   7    -0.174703768263E+04    0.19735E+03   -0.10598E+03 13168   0.145E+02    0.236E+02
DAV:   8    -0.205504275933E+04   -0.30801E+03   -0.63280E+02 16120   0.135E+02    0.316E+02
DAV:   9    -0.191373894504E+04    0.14130E+03   -0.25693E+02 13408   0.110E+02    0.278E+02
DAV:  10    -0.169568398712E+04    0.21805E+03   -0.28143E+02 17296   0.793E+01    0.219E+02
DAV:  11    -0.153849084385E+04    0.15719E+03   -0.24747E+02 13488   0.726E+01    0.177E+02
DAV:  12    -0.158523868136E+04   -0.46748E+02   -0.41817E+02 15904   0.104E+02    0.208E+02
DAV:  13    -0.151408246480E+04    0.71156E+02   -0.23472E+02 13664   0.758E+01    0.154E+02
DAV:  14    -0.151610123407E+04   -0.20188E+01   -0.17101E+02 13016   0.861E+01    0.183E+02
DAV:  15    -0.150553160958E+04    0.10570E+02   -0.95797E+01 13000   0.650E+01    0.191E+02
DAV:  16    -0.148616949388E+04    0.19362E+02   -0.82149E+01 13072   0.637E+01    0.178E+02
DAV:  17    -0.142400713634E+04    0.62162E+02   -0.59896E+01 12688   0.408E+01    0.139E+02
DAV:  18    -0.138680767976E+04    0.37199E+02   -0.50421E+01 12736   0.408E+01    0.123E+02
DAV:  19    -0.138386949552E+04    0.29382E+01   -0.34813E+01 13056   0.341E+01    0.123E+02
DAV:  20    -0.135232264560E+04    0.31547E+02   -0.27863E+01 12968   0.307E+01    0.769E+01
DAV:  21    -0.134603348312E+04    0.62892E+01   -0.18975E+01 12896   0.245E+01    0.687E+01
DAV:  22    -0.134591763437E+04    0.11585E+00   -0.11934E+01 13016   0.201E+01    0.724E+01
DAV:  23    -0.134028248446E+04    0.56351E+01   -0.82295E+00 12960   0.162E+01    0.611E+01
DAV:  24    -0.133810240710E+04    0.21801E+01   -0.65854E+00 13064   0.151E+01    0.573E+01
DAV:  25    -0.133455502326E+04    0.35474E+01   -0.49069E+00 13024   0.130E+01    0.507E+01
DAV:  26    -0.133214343054E+04    0.24116E+01   -0.37261E+00 13200   0.114E+01    0.437E+01
DAV:  27    -0.133150837833E+04    0.63505E+00   -0.33583E+00 13272   0.110E+01    0.434E+01
DAV:  28    -0.133066627881E+04    0.84210E+00   -0.31149E+00 13280   0.111E+01    0.398E+01
DAV:  29    -0.132881258831E+04    0.18537E+01   -0.26426E+00 13248   0.101E+01    0.317E+01
DAV:  30    -0.132896749741E+04   -0.15491E+00   -0.19256E+00 13296   0.827E+00    0.360E+01
DAV:  31    -0.132813336880E+04    0.83413E+00   -0.14155E+00 13312   0.624E+00    0.306E+01
DAV:  32    -0.132732370471E+04    0.80966E+00   -0.10269E+00 13272   0.525E+00    0.246E+01
DAV:  33    -0.132676710102E+04    0.55660E+00   -0.74252E-01 13384   0.442E+00    0.183E+01
DAV:  34    -0.132703211669E+04   -0.26502E+00   -0.79306E-01 13344   0.491E+00    0.193E+01
DAV:  35    -0.132883936119E+04   -0.18072E+01   -0.10624E+00 13344   0.663E+00    0.344E+01
DAV:  36    -0.132895651538E+04   -0.11715E+00   -0.10836E+00 13376   0.624E+00    0.366E+01
DAV:  37    -0.132829430883E+04    0.66221E+00   -0.69136E-01 13336   0.463E+00    0.326E+01
DAV:  38    -0.132785274644E+04    0.44156E+00   -0.61328E-01 13328   0.422E+00    0.295E+01
DAV:  39    -0.132712831589E+04    0.72443E+00   -0.60699E-01 13392   0.424E+00    0.227E+01
DAV:  40    -0.132661451989E+04    0.51380E+00   -0.53992E-01 13448   0.421E+00    0.171E+01
DAV:  41    -0.132679197311E+04   -0.17745E+00   -0.57132E-01 13336   0.435E+00    0.196E+01
DAV:  42    -0.132656585534E+04    0.22612E+00   -0.58588E-01 13336   0.415E+00    0.164E+01
DAV:  43    -0.132615399772E+04    0.41186E+00   -0.39629E-01 13352   0.364E+00    0.111E+01
DAV:  44    -0.132601056184E+04    0.14344E+00   -0.21414E-01 13328   0.232E+00    0.868E+00
DAV:  45    -0.132601920714E+04   -0.86453E-02   -0.14493E-01 13400   0.192E+00    0.888E+00
DAV:  46    -0.132599963409E+04    0.19573E-01   -0.13167E-01 13376   0.182E+00    0.807E+00
DAV:  47    -0.132596231836E+04    0.37316E-01   -0.11148E-01 13312   0.188E+00    0.638E+00
DAV:  48    -0.132596233681E+04   -0.18455E-04   -0.83469E-02 13304   0.165E+00    0.609E+00
DAV:  49    -0.132601893565E+04   -0.56599E-01   -0.96194E-02 13344   0.162E+00    0.870E+00
DAV:  50    -0.132596897024E+04    0.49965E-01   -0.80058E-02 13304   0.131E+00    0.760E+00
DAV:  51    -0.132607473131E+04   -0.10576E+00   -0.84987E-02 13840   0.171E+00    0.103E+01
DAV:  52    -0.132595579316E+04    0.11894E+00   -0.77492E-02 13440   0.130E+00    0.643E+00
DAV:  53    -0.132591639432E+04    0.39399E-01   -0.54055E-02 13440   0.127E+00    0.483E+00
DAV:  54    -0.132592393918E+04   -0.75449E-02   -0.47892E-02 13416   0.115E+00    0.497E+00
DAV:  55    -0.132597000606E+04   -0.46067E-01   -0.69057E-02 13552   0.147E+00    0.640E+00
DAV:  56    -0.132591326641E+04    0.56740E-01   -0.61203E-02 13608   0.142E+00    0.433E+00
DAV:  57    -0.132587895514E+04    0.34311E-01   -0.22874E-02 13520   0.864E-01    0.227E+00
DAV:  58    -0.132588382336E+04   -0.48682E-02   -0.14803E-02 13544   0.722E-01    0.234E+00
DAV:  59    -0.132588461087E+04   -0.78751E-03   -0.11635E-02 13568   0.673E-01    0.282E+00
DAV:  60    -0.132588434453E+04    0.26634E-03   -0.85222E-03 13456   0.524E-01    0.275E+00
DAV:  61    -0.132588797067E+04   -0.36261E-02   -0.13682E-02 13552   0.677E-01    0.247E+00
DAV:  62    -0.132587576657E+04    0.12204E-01   -0.11203E-02 13592   0.620E-01    0.121E+00
DAV:  63    -0.132587423511E+04    0.15315E-02   -0.33373E-03 13688   0.319E-01    0.872E-01
DAV:  64    -0.132587460085E+04   -0.36574E-03   -0.22127E-03 13576   0.266E-01    0.822E-01
DAV:  65    -0.132587519306E+04   -0.59221E-03   -0.17407E-03 13624   0.254E-01    0.784E-01
DAV:  66    -0.132589197796E+04   -0.16785E-01   -0.72511E-03 15240   0.508E-01    0.279E+00
DAV:  67    -0.132587721348E+04    0.14764E-01   -0.86018E-03 14360   0.508E-01    0.100E+00
DAV:  68    -0.132587648356E+04    0.72992E-03   -0.16861E-03 13992   0.230E-01    0.654E-01
DAV:  69    -0.132587697243E+04   -0.48887E-03   -0.98897E-04 13624   0.172E-01    0.528E-01
DAV:  70    -0.132587762218E+04   -0.64975E-03   -0.65626E-04 13552   0.136E-01    0.416E-01
DAV:  71    -0.132588114487E+04   -0.35227E-02   -0.17602E-03 14096   0.247E-01    0.122E+00
DAV:  72    -0.132587888685E+04    0.22580E-02   -0.16372E-03 13658   0.226E-01    0.454E-01
DAV:  73    -0.132587893944E+04   -0.52591E-04   -0.32431E-04 13744   0.931E-02    0.331E-01
DAV:  74    -0.132587949087E+04   -0.55144E-03   -0.26449E-04 13608   0.849E-02    0.301E-01
DAV:  75    -0.132588017553E+04   -0.68465E-03   -0.21148E-04 13352   0.773E-02    0.196E-01
DAV:  76    -0.132588058977E+04   -0.41424E-03   -0.30963E-04 14280   0.100E-01    0.402E-01
DAV:  77    -0.132588106212E+04   -0.47234E-03   -0.33027E-04 13680   0.970E-02    0.338E-01
DAV:  78    -0.132588156057E+04   -0.49846E-03   -0.16997E-04 13904   0.640E-02    0.204E-01
DAV:  79    -0.132588204078E+04   -0.48021E-03   -0.11067E-04 13928   0.494E-02    0.201E-01
DAV:  80    -0.132588260854E+04   -0.56775E-03   -0.10687E-04 13832   0.486E-02    0.155E-01
DAV:  81    -0.132588307785E+04   -0.46931E-03   -0.11249E-04 14032   0.585E-02    0.198E-01
DAV:  82    -0.132588333212E+04   -0.25427E-03   -0.86842E-05 13688   0.498E-02    0.130E-01
DAV:  83    -0.132588378509E+04   -0.45297E-03   -0.68952E-05 14144   0.332E-02    0.127E-01
DAV:  84    -0.132588428349E+04   -0.49840E-03   -0.63047E-05 13928   0.368E-02    0.146E-01
DAV:  85    -0.132588474880E+04   -0.46531E-03   -0.71476E-05 13912   0.371E-02    0.114E-01
DAV:  86    -0.132588455092E+04    0.19788E-03   -0.64360E-05 13850   0.452E-02    0.181E-01
DAV:  87    -0.132588486973E+04   -0.31881E-03   -0.65565E-05 13696   0.410E-02    0.136E-01
DAV:  88    -0.132588501607E+04   -0.14634E-03   -0.29051E-05 11129   0.259E-02    0.133E-01
DAV:  89    -0.132588511025E+04   -0.94177E-04   -0.20800E-05 10264   0.212E-02    0.121E-01
DAV:  90    -0.132588522314E+04   -0.11290E-03   -0.22645E-05 10433   0.211E-02    0.891E-02
DAV:  91    -0.132588507857E+04    0.14458E-03   -0.45911E-05 10217   0.354E-02    0.187E-01
DAV:  92    -0.132588522714E+04   -0.14857E-03   -0.48441E-05 10040   0.332E-02    0.606E-02
DAV:  93    -0.132588529612E+04   -0.68980E-04   -0.11922E-05  8456   0.169E-02    0.621E-02
DAV:  94    -0.132588534441E+04   -0.48285E-04   -0.11142E-05  8416   0.161E-02    0.509E-02
DAV:  95    -0.132588536541E+04   -0.21007E-04   -0.79658E-06  8056   0.130E-02    0.335E-02
DAV:  96    -0.132588540334E+04   -0.37927E-04   -0.15704E-05  7608   0.231E-02    0.109E-01
DAV:  97    -0.132588541113E+04   -0.77847E-05   -0.17092E-05  8072   0.219E-02    0.277E-02
DAV:  98    -0.132588541842E+04   -0.72978E-05   -0.44298E-06  7816   0.841E-03    0.245E-02
DAV:  99    -0.132588544734E+04   -0.28911E-04   -0.41208E-06  7136   0.858E-03    0.309E-02
DAV: 100    -0.132588547352E+04   -0.26190E-04   -0.37234E-06  7256   0.868E-03    0.227E-02
DAV: 101    -0.132588547391E+04   -0.38370E-06   -0.45523E-06  6408   0.122E-02
   1 F= -.14232672E+04 E0= -.14225174E+04  d E =-.149964E+01
