       N       E                     dE             d eps       ncg     rms          rms(c)
DAV:   1     0.320263035840E+05    0.32026E+05   -0.74785E+05 14568   0.194E+03
DAV:   2     0.559360623125E+04   -0.26433E+05   -0.24974E+05 14400   0.676E+02
DAV:   3     0.684688664283E+03   -0.49089E+04   -0.43695E+04 15240   0.316E+02
DAV:   4     0.224976132554E+03   -0.45971E+03   -0.44974E+03 20320   0.111E+02
DAV:   5     0.209439228206E+03   -0.15537E+02   -0.15488E+02 20816   0.207E+01    0.791E+02
DAV:   6     0.613454925008E+03    0.40402E+03   -0.93043E+02 21040   0.988E+01    0.443E+02
DAV:   7     0.648080952142E+03    0.34626E+02   -0.86228E+02 15080   0.834E+01    0.176E+02
DAV:   8     0.677047919150E+03    0.28967E+02   -0.10767E+02 15504   0.411E+01    0.312E+01
DAV:   9     0.682386159996E+03    0.53382E+01   -0.21277E+01 17328   0.843E+00    0.174E+01
DAV:  10     0.682613925158E+03    0.22777E+00   -0.17314E+00 19504   0.251E+00    0.114E+01
DAV:  11     0.682562599764E+03   -0.51325E-01   -0.21277E-01 16320   0.111E+00    0.751E+00
DAV:  12     0.682622223038E+03    0.59623E-01   -0.30147E-01 20336   0.177E+00    0.266E+00
DAV:  13     0.682623970338E+03    0.17473E-02   -0.69835E-02 15544   0.928E-01    0.793E-01
DAV:  14     0.682622786796E+03   -0.11835E-02   -0.79258E-03 20880   0.131E-01    0.862E-01
DAV:  15     0.682623667820E+03    0.88102E-03   -0.20921E-03 19448   0.126E-01    0.182E-01
DAV:  16     0.682623652765E+03   -0.15055E-04   -0.75396E-04 20376   0.528E-02    0.137E-01
DAV:  17     0.682623649404E+03   -0.33616E-05   -0.71031E-05 14560   0.197E-02    0.142E-01
DAV:  18     0.682623642973E+03   -0.64304E-05   -0.89323E-06  8640   0.999E-03    0.589E-02
DAV:  19     0.682623642686E+03   -0.28733E-06   -0.34107E-06  8232   0.367E-03
   1 F= 0.53781588E+03 E0= 0.53784911E+03  d E =0.537816E+03
