         516
 Energy:  -9426.2990418999998     
 X   0.00000000       0.00000000       0.00000000    
 X   17.1805725       0.00000000       0.00000000    
 X   8.59028721       14.8788118       0.00000000    
 X   0.00000000       0.00000000       40.0000000    
 X   25.7708588       14.8788118       0.00000000    
 X   17.1805725       0.00000000       40.0000000    
 X   8.59028721       14.8788118       40.0000000    
 X   25.7708588       14.8788118       40.0000000    
 Al   11.4537201       6.61281013       2.33798003    
 Al   14.3171396       11.5724096       2.33798003    
 Al   8.59029007       1.65320003       2.33798003    
 Al   17.1805706       6.61281013       2.33798003    
 Al   20.0440006       11.5724096       2.33798003    
 Al   14.3171396       1.65320003       2.33798003    
 Al   5.72686005       6.61281013       2.33798003    
 Al   8.59029007       11.5724096       2.33798003    
 Al   2.86343002       1.65320003       2.33798003    
 Al   14.3171396       8.26601028       4.67596006    
 Al   17.1805706       13.2256098       4.67596006    
 Al   11.4537201       3.30640006       4.67596006    
 Al   20.0440006       8.26601028       4.67596006    
 Al   22.9074306       13.2256098       4.67596006    
 Al   17.1805706       3.30640006       4.67596006    
 Al   8.59029007       8.26601028       4.67596006    
 Al   11.4537201       13.2256098       4.67596006    
 Al   5.72686005       3.30640006       4.67596006    
 Al   17.1805706       9.91921043       7.01393986    
 Al   11.4537201       0.00000000       7.01393986    
 Al   14.3171396       4.95959997       7.01393986    
 Al   5.72686005       9.91921043       7.01393986    
 Al   0.00000000       0.00000000       7.01393986    
 Al   2.86343002       4.95959997       7.01393986    
 Al   11.4537201       9.91921043       7.01393986    
 Al   5.72686005       0.00000000       7.01393986    
 Al   8.59027958       4.95959997       7.01393986    
 Al   20.0440006       11.5724096       9.35192013    
 Al   14.3171396       1.65320003       9.35192013    
 Al   17.1805706       6.61280012       9.35192013    
 Al   8.59029007       11.5724096       9.35192013    
 Al   2.86343002       1.65320003       9.35192013    
 Al   5.72686005       6.61280012       9.35192013    
 Al   14.3171396       11.5724096       9.35192013    
 Al   8.59027958       1.65320003       9.35192013    
 Al   11.4537096       6.61280012       9.35192013    
 Al   22.9074306       13.2256098       11.6899004    
 Al   17.1805706       3.30640006       11.6899004    
 Al   20.0440006       8.26601028       11.6899004    
 Al   11.4537201       13.2256098       11.6899004    
 Al   5.72686005       3.30640006       11.6899004    
 Al   8.59027958       8.26601028       11.6899004    
 Al   17.1805706       13.2256098       11.6899004    
 Al   11.4537096       3.30640006       11.6899004    
 Al   14.3171396       8.26601028       11.6899004    
 Al   0.00000000       0.00000000       14.0278797    
 Al   2.86343002       4.95959997       14.0278797    
 Al   5.72686005       9.91921043       14.0278797    
 Al   5.72686005       0.00000000       14.0278797    
 Al   8.59027958       4.95959997       14.0278797    
 Al   11.4537096       9.91921043       14.0278797    
 Al   11.4537096       0.00000000       14.0278797    
 Al   14.3171396       4.95959997       14.0278797    
 Al   17.1805706       9.91921043       14.0278797    
 Al   2.86343002       1.65320003       16.3658600    
 Al   5.72686005       6.61280012       16.3658600    
 Al   8.59029007       11.5724096       16.3658600    
 Al   8.59027958       1.65320003       16.3658600    
 Al   11.4537096       6.61280012       16.3658600    
 Al   14.3171396       11.5724096       16.3658600    
 Al   14.3171396       1.65320003       16.3658600    
 Al   17.1805706       6.61280012       16.3658600    
 Al   20.0440006       11.5724096       16.3658600    
 Al   7.15856981       4.13299990       2.33798003    
 Al   10.0220003       9.09261036       2.33798003    
 Al   12.8854303       14.0522099       2.33798003    
 Al   12.8854303       4.13299990       2.33798003    
 Al   15.7488604       9.09261036       2.33798003    
 Al   18.6122894       14.0522099       2.33798003    
 Al   18.6122894       4.13299990       2.33798003    
 Al   21.4757195       9.09261036       2.33798003    
 Al   24.3391495       14.0522099       2.33798003    
 Al   10.0220003       5.78620005       4.67596006    
 Al   12.8854303       10.7458096       4.67596006    
 Al   7.15856981      0.826600015       4.67596006    
 Al   15.7488604       5.78620005       4.67596006    
 Al   18.6122894       10.7458096       4.67596006    
 Al   12.8854303      0.826600015       4.67596006    
 Al   4.29513979       5.78620005       4.67596006    
 Al   7.15856981       10.7458096       4.67596006    
 Al   1.43171000      0.826600015       4.67596006    
 Al   12.8854303       7.43941021       7.01393986    
 Al   15.7488604       12.3990097       7.01393986    
 Al   10.0220003       2.47979999       7.01393986    
 Al   18.6122894       7.43941021       7.01393986    
 Al   21.4757195       12.3990097       7.01393986    
 Al   15.7488604       2.47979999       7.01393986    
 Al   7.15856981       7.43941021       7.01393986    
 Al   10.0220003       12.3990097       7.01393986    
 Al   4.29513979       2.47979999       7.01393986    
 Al   15.7488604       9.09261036       9.35192013    
 Al   18.6122894       14.0522099       9.35192013    
 Al   12.8854303       4.13299990       9.35192013    
 Al   21.4757195       9.09261036       9.35192013    
 Al   24.3391495       14.0522099       9.35192013    
 Al   18.6122894       4.13299990       9.35192013    
 Al   10.0220003       9.09261036       9.35192013    
 Al   12.8854303       14.0522099       9.35192013    
 Al   7.15856981       4.13299990       9.35192013    
 Al   18.6122894       10.7458096       11.6899004    
 Al   12.8854303      0.826600015       11.6899004    
 Al   15.7488604       5.78620005       11.6899004    
 Al   7.15856981       10.7458096       11.6899004    
 Al   1.43171000      0.826600015       11.6899004    
 Al   4.29513979       5.78620005       11.6899004    
 Al   12.8854303       10.7458096       11.6899004    
 Al   7.15856981      0.826600015       11.6899004    
 Al   10.0220003       5.78620005       11.6899004    
 Al   21.4757195       12.3990097       14.0278797    
 Al   15.7488604       2.47979999       14.0278797    
 Al   18.6122894       7.43941021       14.0278797    
 Al   10.0220003       12.3990097       14.0278797    
 Al   4.29513979       2.47979999       14.0278797    
 Al   7.15856981       7.43941021       14.0278797    
 Al   15.7488604       12.3990097       14.0278797    
 Al   10.0220003       2.47979999       14.0278797    
 Al   12.8854303       7.43941021       14.0278797    
 Al   24.3391495       14.0522099       16.3658600    
 Al   18.6122894       4.13299990       16.3658600    
 Al   21.4757195       9.09261036       16.3658600    
 Al   12.8854303       14.0522099       16.3658600    
 Al   7.15856981       4.13299990       16.3658600    
 Al   10.0220003       9.09261036       16.3658600    
 Al   18.6122894       14.0522099       16.3658600    
 Al   12.8854303       4.13299990       16.3658600    
 Al   15.7488604       9.09261036       16.3658600    
 Al   8.59029007       6.61281013       2.33798003    
 Al   11.4537201       11.5724096       2.33798003    
 Al   5.72686005       1.65320003       2.33798003    
 Al   14.3171396       6.61281013       2.33798003    
 Al   17.1805706       11.5724096       2.33798003    
 Al   11.4537201       1.65320003       2.33798003    
 Al   20.0440006       6.61281013       2.33798003    
 Al   22.9074306       11.5724096       2.33798003    
 Al   17.1805706       1.65320003       2.33798003    
 Al   11.4537201       8.26601028       4.67596006    
 Al   14.3171396       13.2256098       4.67596006    
 Al   8.59029007       3.30640006       4.67596006    
 Al   17.1805706       8.26601028       4.67596006    
 Al   20.0440006       13.2256098       4.67596006    
 Al   14.3171396       3.30640006       4.67596006    
 Al   5.72686005       8.26601028       4.67596006    
 Al   8.59029007       13.2256098       4.67596006    
 Al   2.86343002       3.30640006       4.67596006    
 Al   14.3171396       9.91921043       7.01393986    
 Al   8.59029007       0.00000000       7.01393986    
 Al   11.4537096       4.95959997       7.01393986    
 Al   20.0440006       9.91921043       7.01393986    
 Al   14.3171396       0.00000000       7.01393986    
 Al   17.1805706       4.95959997       7.01393986    
 Al   8.59029007       9.91921043       7.01393986    
 Al   2.86343002       0.00000000       7.01393986    
 Al   5.72686005       4.95959997       7.01393986    
 Al   17.1805706       11.5724096       9.35192013    
 Al   11.4537201       1.65320003       9.35192013    
 Al   14.3171396       6.61280012       9.35192013    
 Al   22.9074306       11.5724096       9.35192013    
 Al   17.1805706       1.65320003       9.35192013    
 Al   20.0440006       6.61280012       9.35192013    
 Al   11.4537201       11.5724096       9.35192013    
 Al   5.72686005       1.65320003       9.35192013    
 Al   8.59027958       6.61280012       9.35192013    
 Al   20.0440006       13.2256098       11.6899004    
 Al   14.3171396       3.30640006       11.6899004    
 Al   17.1805706       8.26601028       11.6899004    
 Al   8.59029007       13.2256098       11.6899004    
 Al   2.86343002       3.30640006       11.6899004    
 Al   5.72686005       8.26601028       11.6899004    
 Al   14.3171501       13.2256098       11.6899004    
 Al   8.59027958       3.30640006       11.6899004    
 Al   11.4537096       8.26601028       11.6899004    
 Al   14.3171396       0.00000000       14.0278797    
 Al   17.1805706       4.95959997       14.0278797    
 Al   20.0440006       9.91921043       14.0278797    
 Al   2.86343002       0.00000000       14.0278797    
 Al   5.72686005       4.95959997       14.0278797    
 Al   8.59029007       9.91921043       14.0278797    
 Al   8.59027958       0.00000000       14.0278797    
 Al   11.4537096       4.95959997       14.0278797    
 Al   14.3171396       9.91921043       14.0278797    
 Al   17.1805706       1.65320003       16.3658600    
 Al   20.0440006       6.61280012       16.3658600    
 Al   22.9074306       11.5724096       16.3658600    
 Al   5.72686005       1.65320003       16.3658600    
 Al   8.59027958       6.61280012       16.3658600    
 Al   11.4537096       11.5724096       16.3658600    
 Al   11.4537096       1.65320003       16.3658600    
 Al   14.3171396       6.61280012       16.3658600    
 Al   17.1805706       11.5724096       16.3658600    
 Al   10.0220003       4.13299990       2.33798003    
 Al   12.8854303       9.09261036       2.33798003    
 Al   15.7488604       14.0522099       2.33798003    
 Al   15.7488604       4.13299990       2.33798003    
 Al   18.6122894       9.09261036       2.33798003    
 Al   21.4757195       14.0522099       2.33798003    
 Al   4.29513979       4.13299990       2.33798003    
 Al   7.15856981       9.09261036       2.33798003    
 Al   10.0220003       14.0522099       2.33798003    
 Al   12.8854303       5.78620005       4.67596006    
 Al   15.7488604       10.7458096       4.67596006    
 Al   10.0220003      0.826600015       4.67596006    
 Al   18.6122894       5.78620005       4.67596006    
 Al   21.4757195       10.7458096       4.67596006    
 Al   15.7488604      0.826600015       4.67596006    
 Al   7.15856981       5.78620005       4.67596006    
 Al   10.0220003       10.7458096       4.67596006    
 Al   4.29513979      0.826600015       4.67596006    
 Al   15.7488604       7.43941021       7.01393986    
 Al   18.6122894       12.3990097       7.01393986    
 Al   12.8854303       2.47979999       7.01393986    
 Al   4.29513979       7.43941021       7.01393986    
 Al   7.15856981       12.3990097       7.01393986    
 Al   1.43172002       2.47979999       7.01393986    
 Al   10.0220003       7.43941021       7.01393986    
 Al   12.8854303       12.3990097       7.01393986    
 Al   7.15856981       2.47979999       7.01393986    
 Al   18.6122894       9.09261036       9.35192013    
 Al   21.4757195       14.0522099       9.35192013    
 Al   15.7488604       4.13299990       9.35192013    
 Al   7.15856981       9.09261036       9.35192013    
 Al   10.0220003       14.0522099       9.35192013    
 Al   4.29513979       4.13299990       9.35192013    
 Al   12.8854303       9.09261036       9.35192013    
 Al   15.7488604       14.0522099       9.35192013    
 Al   10.0220003       4.13299990       9.35192013    
 Al   21.4757195       10.7458096       11.6899004    
 Al   15.7488604      0.826600015       11.6899004    
 Al   18.6122894       5.78620005       11.6899004    
 Al   10.0220003       10.7458096       11.6899004    
 Al   4.29513979      0.826600015       11.6899004    
 Al   7.15856981       5.78620005       11.6899004    
 Al   15.7488604       10.7458096       11.6899004    
 Al   10.0220003      0.826600015       11.6899004    
 Al   12.8854303       5.78620005       11.6899004    
 Al   7.15856981       12.3990097       14.0278797    
 Al   1.43172002       2.47979999       14.0278797    
 Al   4.29513979       7.43941021       14.0278797    
 Al   12.8854303       12.3990097       14.0278797    
 Al   7.15856981       2.47979999       14.0278797    
 Al   10.0220003       7.43941021       14.0278797    
 Al   18.6122894       12.3990097       14.0278797    
 Al   12.8854303       2.47979999       14.0278797    
 Al   15.7488604       7.43941021       14.0278797    
 Al   10.0220003       14.0522099       16.3658600    
 Al   4.29513979       4.13299990       16.3658600    
 Al   7.15856981       9.09261036       16.3658600    
 Al   15.7488604       14.0522099       16.3658600    
 Al   10.0220003       4.13299990       16.3658600    
 Al   12.8854303       9.09261036       16.3658600    
 Al   21.4757195       14.0522099       16.3658600    
 Al   15.7488604       4.13299990       16.3658600    
 Al   18.6122894       9.09261036       16.3658600    
 O    0.00000000       0.00000000       17.7658596    
 O    0.00000000       0.00000000       18.9658604    
 O    0.00000000       0.00000000       20.1658592    
 O    0.00000000       0.00000000       21.3658600    
 O    1.07378995       1.85985005       17.7658596    
 O    1.07378995       1.85985005       18.9658604    
 O    1.07378995       1.85985005       20.1658592    
 O    1.07378995       1.85985005       21.3658600    
 O    2.14756989       3.71970010       17.7658596    
 O    2.14756989       3.71970010       18.9658604    
 O    2.14756989       3.71970010       20.1658592    
 O    2.14756989       3.71970010       21.3658600    
 O    3.22135997       5.57954979       17.7658596    
 O    3.22135997       5.57954979       18.9658604    
 O    3.22135997       5.57954979       20.1658592    
 O    3.22135997       5.57954979       21.3658600    
 O    4.29513979       7.43941021       17.7658596    
 O    4.29513979       7.43941021       18.9658604    
 O    4.29513979       7.43941021       20.1658592    
 O    4.29513979       7.43941021       21.3658600    
 O    5.36892986       9.29926014       17.7658596    
 O    5.36892986       9.29926014       18.9658604    
 O    5.36892986       9.29926014       20.1658592    
 O    5.36892986       9.29926014       21.3658600    
 O    6.44271994       11.1591101       17.7658596    
 O    6.44271994       11.1591101       18.9658604    
 O    6.44271994       11.1591101       20.1658592    
 O    6.44271994       11.1591101       21.3658600    
 O    7.51650000       13.0189600       17.7658596    
 O    7.51650000       13.0189600       18.9658604    
 O    7.51650000       13.0189600       20.1658592    
 O    7.51650000       13.0189600       21.3658600    
 O    2.14756989       0.00000000       17.7658596    
 O    2.14756989       0.00000000       18.9658604    
 O    2.14756989       0.00000000       20.1658592    
 O    2.14756989       0.00000000       21.3658600    
 O    3.22135997       1.85985005       17.7658596    
 O    3.22135997       1.85985005       18.9658604    
 O    3.22135997       1.85985005       20.1658592    
 O    3.22135997       1.85985005       21.3658600    
 O    4.29513979       3.71970010       17.7658596    
 O    4.29513979       3.71970010       18.9658604    
 O    4.29513979       3.71970010       20.1658592    
 O    4.29513979       3.71970010       21.3658600    
 O    5.36892986       5.57954979       17.7658596    
 O    5.36892986       5.57954979       18.9658604    
 O    5.36892986       5.57954979       20.1658592    
 O    5.36892986       5.57954979       21.3658600    
 O    6.44271994       7.43941021       17.7658596    
 O    6.44271994       7.43941021       18.9658604    
 O    6.44271994       7.43941021       20.1658592    
 O    6.44271994       7.43941021       21.3658600    
 O    7.51650000       9.29926014       17.7658596    
 O    7.51650000       9.29926014       18.9658604    
 O    7.51650000       9.29926014       20.1658592    
 O    7.51650000       9.29926014       21.3658600    
 O    8.59029007       11.1591101       17.7658596    
 O    8.59029007       11.1591101       18.9658604    
 O    8.59029007       11.1591101       20.1658592    
 O    8.59029007       11.1591101       21.3658600    
 O    9.66407013       13.0189600       17.7658596    
 O    9.66407013       13.0189600       18.9658604    
 O    9.66407013       13.0189600       20.1658592    
 O    9.66407013       13.0189600       21.3658600    
 O    4.29513979       0.00000000       17.7658596    
 O    4.29513979       0.00000000       18.9658604    
 O    4.29513979       0.00000000       20.1658592    
 O    4.29513979       0.00000000       21.3658600    
 O    5.36892986       1.85985005       17.7658596    
 O    5.36892986       1.85985005       18.9658604    
 O    5.36892986       1.85985005       20.1658592    
 O    5.36892986       1.85985005       21.3658600    
 O    6.44270992       3.71970010       17.7658596    
 O    6.44270992       3.71970010       18.9658604    
 O    6.44270992       3.71970010       20.1658592    
 O    6.44270992       3.71970010       21.3658600    
 O    7.51650000       5.57954979       17.7658596    
 O    7.51650000       5.57954979       18.9658604    
 O    7.51650000       5.57954979       20.1658592    
 O    7.51650000       5.57954979       21.3658600    
 O    8.59029007       7.43941021       17.7658596    
 O    8.59029007       7.43941021       18.9658604    
 O    8.59029007       7.43941021       20.1658592    
 O    8.59029007       7.43941021       21.3658600    
 O    9.66407013       9.29926014       17.7658596    
 O    9.66407013       9.29926014       18.9658604    
 O    9.66407013       9.29926014       20.1658592    
 O    9.66407013       9.29926014       21.3658600    
 O    10.7378597       11.1591101       17.7658596    
 O    10.7378597       11.1591101       18.9658604    
 O    10.7378597       11.1591101       20.1658592    
 O    10.7378597       11.1591101       21.3658600    
 O    11.8116398       13.0189600       17.7658596    
 O    11.8116398       13.0189600       18.9658604    
 O    11.8116398       13.0189600       20.1658592    
 O    11.8116398       13.0189600       21.3658600    
 O    6.44270992       0.00000000       17.7658596    
 O    6.44270992       0.00000000       18.9658604    
 O    6.44270992       0.00000000       20.1658592    
 O    6.44270992       0.00000000       21.3658600    
 O    7.51650000       1.85985005       17.7658596    
 O    7.51650000       1.85985005       18.9658604    
 O    7.51650000       1.85985005       20.1658592    
 O    7.51650000       1.85985005       21.3658600    
 O    8.59029007       3.71970010       17.7658596    
 O    8.59029007       3.71970010       18.9658604    
 O    8.59029007       3.71970010       20.1658592    
 O    8.59029007       3.71970010       21.3658600    
 O    9.66407013       5.57954979       17.7658596    
 O    9.66407013       5.57954979       18.9658604    
 O    9.66407013       5.57954979       20.1658592    
 O    9.66407013       5.57954979       21.3658600    
 O    10.7378597       7.43941021       17.7658596    
 O    10.7378597       7.43941021       18.9658604    
 O    10.7378597       7.43941021       20.1658592    
 O    10.7378597       7.43941021       21.3658600    
 O    11.8116398       9.29926014       17.7658596    
 O    11.8116398       9.29926014       18.9658604    
 O    11.8116398       9.29926014       20.1658592    
 O    11.8116398       9.29926014       21.3658600    
 O    12.8854303       11.1591101       17.7658596    
 O    12.8854303       11.1591101       18.9658604    
 O    12.8854303       11.1591101       20.1658592    
 O    12.8854303       11.1591101       21.3658600    
 O    13.9592199       13.0189600       17.7658596    
 O    13.9592199       13.0189600       18.9658604    
 O    13.9592199       13.0189600       20.1658592    
 O    13.9592199       13.0189600       21.3658600    
 O    8.59029007       0.00000000       17.7658596    
 O    8.59029007       0.00000000       18.9658604    
 O    8.59029007       0.00000000       20.1658592    
 O    8.59029007       0.00000000       21.3658600    
 O    9.66407013       1.85985005       17.7658596    
 O    9.66407013       1.85985005       18.9658604    
 O    9.66407013       1.85985005       20.1658592    
 O    9.66407013       1.85985005       21.3658600    
 O    10.7378597       3.71970010       17.7658596    
 O    10.7378597       3.71970010       18.9658604    
 O    10.7378597       3.71970010       20.1658592    
 O    10.7378597       3.71970010       21.3658600    
 O    11.8116398       5.57954979       17.7658596    
 O    11.8116398       5.57954979       18.9658604    
 O    11.8116398       5.57954979       20.1658592    
 O    11.8116398       5.57954979       21.3658600    
 O    12.8854303       7.43941021       17.7658596    
 O    12.8854303       7.43941021       18.9658604    
 O    12.8854303       7.43941021       20.1658592    
 O    12.8854303       7.43941021       21.3658600    
 O    13.9592199       9.29926014       17.7658596    
 O    13.9592199       9.29926014       18.9658604    
 O    13.9592199       9.29926014       20.1658592    
 O    13.9592199       9.29926014       21.3658600    
 O    15.0330000       11.1591101       17.7658596    
 O    15.0330000       11.1591101       18.9658604    
 O    15.0330000       11.1591101       20.1658592    
 O    15.0330000       11.1591101       21.3658600    
 O    16.1067905       13.0189600       17.7658596    
 O    16.1067905       13.0189600       18.9658604    
 O    16.1067905       13.0189600       20.1658592    
 O    16.1067905       13.0189600       21.3658600    
 O    10.7378597       0.00000000       17.7658596    
 O    10.7378597       0.00000000       18.9658604    
 O    10.7378597       0.00000000       20.1658592    
 O    10.7378597       0.00000000       21.3658600    
 O    11.8116398       1.85985005       17.7658596    
 O    11.8116398       1.85985005       18.9658604    
 O    11.8116398       1.85985005       20.1658592    
 O    11.8116398       1.85985005       21.3658600    
 O    12.8854303       3.71970010       17.7658596    
 O    12.8854303       3.71970010       18.9658604    
 O    12.8854303       3.71970010       20.1658592    
 O    12.8854303       3.71970010       21.3658600    
 O    13.9592199       5.57954979       17.7658596    
 O    13.9592199       5.57954979       18.9658604    
 O    13.9592199       5.57954979       20.1658592    
 O    13.9592199       5.57954979       21.3658600    
 O    15.0330000       7.43941021       17.7658596    
 O    15.0330000       7.43941021       18.9658604    
 O    15.0330000       7.43941021       20.1658592    
 O    15.0330000       7.43941021       21.3658600    
 O    16.1067905       9.29926014       17.7658596    
 O    16.1067905       9.29926014       18.9658604    
 O    16.1067905       9.29926014       20.1658592    
 O    16.1067905       9.29926014       21.3658600    
 O    17.1805706       11.1591101       17.7658596    
 O    17.1805706       11.1591101       18.9658604    
 O    17.1805706       11.1591101       20.1658592    
 O    17.1805706       11.1591101       21.3658600    
 O    18.2543602       13.0189600       17.7658596    
 O    18.2543602       13.0189600       18.9658604    
 O    18.2543602       13.0189600       20.1658592    
 O    18.2543602       13.0189600       21.3658600    
 O    12.8854303       0.00000000       17.7658596    
 O    12.8854303       0.00000000       18.9658604    
 O    12.8854303       0.00000000       20.1658592    
 O    12.8854303       0.00000000       21.3658600    
 O    13.9592199       1.85985005       17.7658596    
 O    13.9592199       1.85985005       18.9658604    
 O    13.9592199       1.85985005       20.1658592    
 O    13.9592199       1.85985005       21.3658600    
 O    15.0330000       3.71970010       17.7658596    
 O    15.0330000       3.71970010       18.9658604    
 O    15.0330000       3.71970010       20.1658592    
 O    15.0330000       3.71970010       21.3658600    
 O    16.1067905       5.57954979       17.7658596    
 O    16.1067905       5.57954979       18.9658604    
 O    16.1067905       5.57954979       20.1658592    
 O    16.1067905       5.57954979       21.3658600    
 O    17.1805706       7.43941021       17.7658596    
 O    17.1805706       7.43941021       18.9658604    
 O    17.1805706       7.43941021       20.1658592    
 O    17.1805706       7.43941021       21.3658600    
 O    18.2543602       9.29926014       17.7658596    
 O    18.2543602       9.29926014       18.9658604    
 O    18.2543602       9.29926014       20.1658592    
 O    18.2543602       9.29926014       21.3658600    
 O    19.3281403       11.1591101       17.7658596    
 O    19.3281403       11.1591101       18.9658604    
 O    19.3281403       11.1591101       20.1658592    
 O    19.3281403       11.1591101       21.3658600    
 O    20.4019299       13.0189600       17.7658596    
 O    20.4019299       13.0189600       18.9658604    
 O    20.4019299       13.0189600       20.1658592    
 O    20.4019299       13.0189600       21.3658600    
 O    15.0330000       0.00000000       17.7658596    
 O    15.0330000       0.00000000       18.9658604    
 O    15.0330000       0.00000000       20.1658592    
 O    15.0330000       0.00000000       21.3658600    
 O    16.1067905       1.85985005       17.7658596    
 O    16.1067905       1.85985005       18.9658604    
 O    16.1067905       1.85985005       20.1658592    
 O    16.1067905       1.85985005       21.3658600    
 O    17.1805706       3.71970010       17.7658596    
 O    17.1805706       3.71970010       18.9658604    
 O    17.1805706       3.71970010       20.1658592    
 O    17.1805706       3.71970010       21.3658600    
 O    18.2543602       5.57954979       17.7658596    
 O    18.2543602       5.57954979       18.9658604    
 O    18.2543602       5.57954979       20.1658592    
 O    18.2543602       5.57954979       21.3658600    
 O    19.3281403       7.43941021       17.7658596    
 O    19.3281403       7.43941021       18.9658604    
 O    19.3281403       7.43941021       20.1658592    
 O    19.3281403       7.43941021       21.3658600    
 O    20.4019299       9.29926014       17.7658596    
 O    20.4019299       9.29926014       18.9658604    
 O    20.4019299       9.29926014       20.1658592    
 O    20.4019299       9.29926014       21.3658600    
 O    21.4757195       11.1591101       17.7658596    
 O    21.4757195       11.1591101       18.9658604    
 O    21.4757195       11.1591101       20.1658592    
 O    21.4757195       11.1591101       21.3658600    
 O    22.5494995       13.0189600       17.7658596    
 O    22.5494995       13.0189600       18.9658604    
 O    22.5494995       13.0189600       20.1658592    
 O    22.5494995       13.0189600       21.3658600    
         516
 Energy:  -1977.8164168999999     
 X   0.00000000       0.00000000       0.00000000    
 X   17.1805725       0.00000000       0.00000000    
 X   8.59028721       14.8788118       0.00000000    
 X   0.00000000       0.00000000       40.0000000    
 X   25.7708588       14.8788118       0.00000000    
 X   17.1805725       0.00000000       40.0000000    
 X   8.59028721       14.8788118       40.0000000    
 X   25.7708588       14.8788118       40.0000000    
 Al   11.4536400       6.61276007       2.19132996    
 Al   14.3141804       11.5741196       2.18910003    
 Al   8.59029007       1.65329003       2.19132996    
 Al   17.1805706       6.60937977       2.18910003    
 Al   20.0469704       11.5741196       2.18910003    
 Al   14.3198996       1.65161002       2.19811010    
 Al   5.72693014       6.61276007       2.19132996    
 Al   8.59029007       11.5755901       2.19811010    
 Al   2.86067009       1.65161002       2.19811010    
 Al   14.3205900       8.26799965       5.04935980    
 Al   17.1805706       13.2216301       5.04935980    
 Al   11.4544802       3.30595994       5.05592012    
 Al   20.0405502       8.26799965       5.04935980    
 Al   22.9109707       13.2276497       5.05486012    
 Al   17.1805706       3.30232000       5.05486012    
 Al   8.59029007       8.26688957       5.05592012    
 Al   11.4501801       13.2276497       5.05486012    
 Al   5.72608995       3.30595994       5.05592012    
 Al   17.1805706       9.91921043       6.81023979    
 Al   11.4597998       1.73999998E-03   6.81644011    