         516
 Energy:  -2168.3266093999996      en  -2061.2561993999998      edisp  -107.07041000000000     
 X   0.00000000       0.00000000       0.00000000    
 X   17.1805725       0.00000000       0.00000000    
 X   8.59028721       14.8788118       0.00000000    
 X   0.00000000       0.00000000       40.0000000    
 X   25.7708588       14.8788118       0.00000000    
 X   17.1805725       0.00000000       40.0000000    
 X   8.59028721       14.8788118       40.0000000    
 X   25.7708588       14.8788118       40.0000000    
 Al   11.4494400       6.61034012       2.41123009    
 Al   14.3279200       11.5661898       2.39338994    
 Al   8.59029007       1.65813994       2.41123009    
 Al   17.1805706       6.62523985       2.39338994    
 Al   20.0332298       11.5661898       2.39338994    
 Al   14.3031702       1.66127002       2.38015008    
 Al   5.73113012       6.61034012       2.41123009    
 Al   8.59029007       11.5562801       2.38015008    
 Al   2.87739992       1.66127002       2.38015008    
 Al   14.3318701       8.27451038       4.65622997    
 Al   17.1805706       13.2086096       4.65622997    
 Al   11.4523697       3.30717993       4.66911983    
 Al   20.0292797       8.27451038       4.65622997    
 Al   22.8957806       13.2188797       4.66528988    
 Al   17.1805706       3.31985998       4.66528988    
 Al   8.59029007       8.26445007       4.66911983    
 Al   11.4653702       13.2188797       4.66528988    
 Al   5.72819996       3.30717993       4.66911983    
 Al   17.1805706       9.91921043       6.91741991    
 Al   11.4532299      -2.11000000E-03   6.89270020    
 Al   14.3187304       4.96108007       6.89270020    
 Al   5.72478008       9.91983986       6.89270020    
 Al  -0.00000000      -0.00000000       6.85828018    
 Al   2.86184001       4.96108007       6.89270020    
 Al   11.4557896       9.91983986       6.89270020    
 Al   5.72734022      -2.11000000E-03   6.89270020    
 Al   8.59027958       4.95959997       6.89987993    
 Al   20.0305309       11.5646296       9.06721020    
 Al   14.3208904       1.65103996       9.08349991    
 Al   17.1805706       6.62835979       9.06721020    
 Al   8.59029007       11.5767298       9.08349991    
 Al   2.85967994       1.65103996       9.08349991    
 Al   5.71016979       6.62243986       9.05692005    
 Al   14.3306198       11.5646296       9.06721020    
 Al   8.59027958       1.63392997       9.05692005    
 Al   11.4704103       6.62243986       9.05692005    
 Al   22.9282799       13.2376499       11.2759705    
 Al   17.1805706       3.28232002       11.2759705    
 Al   20.0772305       8.24682045       11.2866802    
 Al   11.4328604       13.2376499       11.2759705    
 Al   5.70138979       3.29169989       11.2517300    
 Al   8.59027958       8.29541016       11.2517300    
 Al   17.1805706       13.2639799       11.2866802    
 Al   11.4791803       3.29169989       11.2517300    
 Al   14.2839203       8.24682045       11.2866802    
 Al  -0.00000000      -0.00000000       13.6144600    
 Al   2.90828991       4.93091011       13.4089203    
 Al   5.77412987       9.89470005       13.4089203    
 Al   5.72444010       5.31999990E-02   13.4089203    
 Al   8.59027958       4.95959997       13.3389101    
 Al   11.4064398       9.89470005       13.4089203    
 Al   11.4561300       5.31999990E-02   13.4089203    
 Al   14.2722797       4.93091011       13.4089203    
 Al   17.1805706       9.91921043       13.3948402    
 Al   2.91323996       1.68195999       15.5539103    
 Al   5.73945999       6.60552979       15.8456001    
 Al   8.59029007       11.5148897       15.5539103    
 Al   8.59027958       1.66776001       15.8456001    
 Al   11.4411097       6.60552979       15.8456001    
 Al   14.5814800       11.4197903       15.6885204    
 Al   14.2673302       1.68195999       15.5539103    
 Al   17.1805801       6.91803980       15.6885204    
 Al   19.7796593       11.4197903       15.6885204    
 Al   7.14779997       4.12678003       2.39338994    
 Al   10.0080299       9.10066986       2.38015008    
 Al   12.8854303       14.0646496       2.39338994    
 Al   12.8854303       4.11686993       2.38015008    
 Al   15.7628298       9.10066986       2.38015008    
 Al   18.6165600       14.0497398       2.41123009    
 Al   18.6230602       4.12678003       2.39338994    
 Al   21.4757195       9.09753990       2.41123009    
 Al   24.3348694       14.0497398       2.41123009    
 Al   10.0103502       5.77947998       4.66528988    
 Al   12.8854303       10.7592602       4.66528988    
 Al   7.14384985      0.835099995       4.65622997    
 Al   15.7605104       5.77947998       4.66528988    
 Al   18.6136303       10.7465897       4.66911983    
 Al   12.8854303      0.825049996       4.66911983    
 Al   4.29513979       5.76919985       4.65622997    
 Al   7.15722990       10.7465897       4.66911983    
 Al   1.44643998      0.835099995       4.65622997    
 Al   12.8854303       7.43941021       6.85828018    
 Al   15.7472696       12.4004898       6.89270020    
 Al   10.0199299       2.48043990       6.89270020    
 Al   18.6127701       7.43729019       6.89270020    
 Al   21.4757195       12.3990097       6.89987993    
 Al   15.7509298       2.48043990       6.89270020    
 Al   7.15809011       7.43729019       6.89270020    
 Al   10.0235901       12.4004898       6.89270020    
 Al   4.29513979       2.47979999       6.91741991    
 Al   15.7451096       9.09045029       9.08349991    
 Al   18.5956001       14.0618496       9.05692005    
 Al   12.8854303       4.13733006       9.08349991    
 Al   21.4757195       9.07332993       9.05692005    
 Al   24.3558407       14.0618496       9.05692005    
 Al   18.6257591       4.12522984       9.06721020    
 Al   10.0257502       9.09045029       9.08349991    
 Al   12.8854303       14.0677700       9.06721020    
 Al   7.14510012       4.12522984       9.06721020    
 Al   18.5868206       10.7311096       11.2517300    
 Al   12.8854303      0.856010020       11.2517300    
 Al   15.7279997       5.79824018       11.2759705    
 Al   7.18404007       10.7311096       11.2517300    
 Al   1.39848006      0.807420015       11.2866802    
 Al   4.29513979       5.82457018       11.2866802    
 Al   12.8854303       10.7217302       11.2759705    
 Al   7.19180012      0.807420015       11.2866802    
 Al   10.0428600       5.79824018       11.2759705    
 Al   21.4757195       12.3990097       13.3389101    
 Al   15.7015800       2.45530009       13.4089203    
 Al   18.6098709       7.49259996       13.4089203    
 Al   9.97714043       12.3703203       13.4089203    
 Al   4.29513979       2.47979999       13.3948402    
 Al   7.16099024       7.49259996       13.4089203    
 Al   15.7937202       12.3703203       13.4089203    
 Al   10.0692797       2.45530009       13.4089203    
 Al   12.8854303       7.43941021       13.6144600    
 Al   24.3265400       14.0449305       15.8456001    
 Al   18.8766308       3.98039007       15.6885204    
 Al   21.4757195       9.10715961       15.8456001    
 Al   12.8854303       14.3574495       15.6885204    
 Al   6.89422989       3.98039007       15.6885204    
 Al   9.97218990       9.12135983       15.5539103    
 Al   18.6248894       14.0449305       15.8456001    
 Al   12.8854303       4.07549000       15.5539103    
 Al   15.7986698       9.12135983       15.5539103    
 Al   8.59029007       6.62523985       2.39338994    
 Al   11.4429398       11.5661898       2.39338994    
 Al   5.71289015       1.66127002       2.38015008    
 Al   14.3214197       6.61034012       2.41123009    
 Al   17.1805706       11.5562801       2.38015008    
 Al   11.4676800       1.66127002       2.38015008    
 Al   20.0397301       6.61034012       2.41123009    
 Al   22.9181995       11.5661898       2.39338994    
 Al   17.1805706       1.65813994       2.41123009    
 Al   11.4389896       8.27451038       4.65622997    
 Al   14.3054895       13.2188797       4.66528988    
 Al   8.59029007       3.31985998       4.66528988    
 Al   17.1805706       8.26445007       4.66911983    
 Al   20.0556602       13.2188797       4.66528988    
 Al   14.3184900       3.30717993       4.66911983    
 Al   5.74158001       8.27451038       4.65622997    
 Al   8.59029007       13.2086096       4.65622997    
 Al   2.86208010       3.30717993       4.66911983    
 Al   14.3150702       9.91983986       6.89270020    
 Al   8.59029007      -0.00000000       6.85828018    
 Al   11.4521303       4.96108007       6.89270020    
 Al   20.0460796       9.91983986       6.89270020    
 Al   14.3176298      -2.11000000E-03   6.89270020    
 Al   17.1805706       4.95959997       6.89987993    
 Al   8.59029007       9.91921043       6.91741991    
 Al   2.86294007      -2.11000000E-03   6.89270020    
 Al   5.72844982       4.96108007       6.89270020    
 Al   17.1805706       11.5767298       9.08349991    
 Al   11.4499702       1.65103996       9.08349991    
 Al   14.3004503       6.62243986       9.05692005    
 Al   22.9209003       11.5646296       9.06721020    
 Al   17.1805706       1.63392997       9.05692005    
 Al   20.0606899       6.62243986       9.05692005    
 Al   11.4402399       11.5646296       9.06721020    
 Al   5.73059988       1.65103996       9.08349991    
 Al   8.59027958       6.62835979       9.06721020    
 Al   20.0231495       13.2376499       11.2759705    
 Al   14.2916803       3.29169989       11.2517300    
 Al   17.1805706       8.29541016       11.2517300    
 Al   8.59029007       13.2639799       11.2866802    
 Al   2.88889003       3.29169989       11.2517300    
 Al   5.69363022       8.24682045       11.2866802    
 Al   14.3380003       13.2376499       11.2759705    
 Al   8.59027958       3.28232002       11.2759705    
 Al   11.4869404       8.24682045       11.2866802    
 Al   14.3147297       5.31999990E-02   13.4089203    
 Al   17.1805706       4.95959997       13.3389101    
 Al   19.9967308       9.89470005       13.4089203    
 Al   2.86583996       5.31999990E-02   13.4089203    
 Al   5.68200016       4.93091011       13.4089203    
 Al   8.59029007       9.91921043       13.3948402    
 Al   8.59027958      -0.00000000       13.6144600    
 Al   11.4985800       4.93091011       13.4089203    
 Al   14.3644199       9.89470005       13.4089203    
 Al   17.1805706       1.66776001       15.8456001    
 Al   20.0314007       6.60552979       15.8456001    
 Al   23.1717701       11.4197903       15.6885204    
 Al   5.67705011       1.68195999       15.5539103    
 Al   8.59027958       6.91803980       15.6885204    
 Al   11.1893702       11.4197903       15.6885204    
 Al   11.5035295       1.68195999       15.5539103    
 Al   14.3297501       6.60552979       15.8456001    
 Al   17.1805706       11.5148897       15.5539103    
 Al   10.0327702       4.12678003       2.39338994    
 Al   12.8854303       9.09753990       2.41123009    
 Al   15.7445803       14.0497398       2.41123009    
 Al   15.7380896       4.12678003       2.39338994    
 Al   18.5983200       9.10066986       2.38015008    
 Al   21.4757195       14.0646496       2.39338994    
 Al   4.29513979       4.11686993       2.38015008    
 Al   7.17254019       9.10066986       2.38015008    
 Al   10.0262804       14.0497398       2.41123009    
 Al   12.8854303       5.76919985       4.65622997    
 Al   15.7475100       10.7465897       4.66911983    
 Al   10.0367203      0.835099995       4.65622997    
 Al   18.6006298       5.77947998       4.66528988    
 Al   21.4757195       10.7592602       4.66528988    
 Al   15.7341299      0.835099995       4.65622997    
 Al   7.17022991       5.77947998       4.66528988    
 Al   10.0233498       10.7465897       4.66911983    
 Al   4.29513979      0.825049996       4.66911983    
 Al   15.7483702       7.43729019       6.89270020    
 Al   18.6138802       12.4004898       6.89270020    
 Al   12.8854303       2.47979999       6.91741991    
 Al   4.29513979       7.43941021       6.85828018    
 Al   7.15698004       12.4004898       6.89270020    
 Al   1.42964005       2.48043990       6.89270020    
 Al   10.0224800       7.43729019       6.89270020    
 Al   12.8854303       12.3990097       6.89987993    
 Al   7.16064978       2.48043990       6.89270020    
 Al   18.6160297       9.09045029       9.08349991    
 Al   21.4757195       14.0677700       9.06721020    
 Al   15.7353897       4.12522984       9.06721020    
 Al   7.15482998       9.09045029       9.08349991    
 Al   10.0053101       14.0618496       9.05692005    
 Al   4.29513979       4.13733006       9.08349991    
 Al   12.8854303       9.07332993       9.05692005    
 Al   15.7655497       14.0618496       9.05692005    
 Al   10.0354795       4.12522984       9.06721020    
 Al   21.4757195       10.7217302       11.2759705    
 Al   15.7820902      0.807420015       11.2866802    
 Al   18.6331406       5.79824018       11.2759705    
 Al   9.99654007       10.7311096       11.2517300    
 Al   4.29513979      0.856010020       11.2517300    
 Al   7.13772011       5.79824018       11.2759705    
 Al   15.7743196       10.7311096       11.2517300    
 Al   9.98876953      0.807420015       11.2866802    
 Al   12.8854303       5.82457018       11.2866802    
 Al   7.20343018       12.3703203       13.4089203    
 Al   1.47898996       2.45530009       13.4089203    
 Al   4.29513979       7.43941021       13.6144600    
 Al   12.8854303       12.3990097       13.3389101    
 Al   7.11129999       2.45530009       13.4089203    
 Al   10.0195904       7.49259996       13.4089203    
 Al   18.5674305       12.3703203       13.4089203    
 Al   12.8854303       2.47979999       13.3948402    
 Al   15.7512703       7.49259996       13.4089203    
 Al   10.0346098       14.0449305       15.8456001    
 Al   4.29513979       4.07549000       15.5539103    
 Al   7.20838022       9.12135983       15.5539103    
 Al   15.7362499       14.0449305       15.8456001    
 Al   10.2863398       3.98039007       15.6885204    
 Al   12.8854303       9.10715961       15.8456001    
 Al   21.4757195       14.3574495       15.6885204    
 Al   15.4845200       3.98039007       15.6885204    
 Al   18.5624809       9.12135983       15.5539103    
 O   -0.00000000      -0.00000000       16.7460804    
 O   -0.00000000      -0.00000000       18.1161594    
 O   -0.00000000      -0.00000000       21.1906700    
 O   -0.00000000      -0.00000000       22.4504795    
 O    1.06787002       2.02851009       17.2993107    
 O    1.00384998       1.89094996       18.5781708    
 O    1.04946005       1.90538001       21.2627506    
 O    1.02300000       1.92290998       22.5012703    
 O    1.72607994       3.96304989       17.4861507    
 O    2.10981989       3.74149990       18.6651497    
 O    2.10482001       3.74439001       21.2670193    
 O    2.02802992       3.78871989       22.5023899    
 O    3.07234001       5.50035000       17.2993107    
 O    3.15946007       5.62456989       18.5781708    
 O    3.16975999       5.57785988       21.2627506    
 O    3.14135003       5.59200001       22.5012703    
 O    4.29513979       7.43941021       16.7460804    
 O    4.29513979       7.43941021       18.1161594    
 O    4.29513979       7.43941021       21.1906700    
 O    4.29513979       7.43941021       22.4504795    
 O    5.36300993       9.46792030       17.2993107    
 O    5.29898977       9.33036041       18.5781708    
 O    5.34460020       9.34479046       21.2627506    
 O    5.31814003       9.36231995       22.5012703    
 O    6.02122021       11.4024601       17.4861507    
 O    6.40496016       11.1808996       18.6651497    
 O    6.39996004       11.1837902       21.2670193    
 O    6.32318020       11.2281199       22.5023899    
 O    7.36747980       12.9397497       17.2993107    
 O    7.45459986       13.0639801       18.5781708    
 O    7.46491003       13.0172596       21.2627506    
 O    7.43650007       13.0314102       22.5012703    
 O    2.29067993      -8.94500017E-02   17.2993107    
 O    2.13953996      -7.61199966E-02   18.5781708    
 O    2.17483997      -4.38299999E-02   21.2627506    
 O    2.17679000      -7.55100027E-02   22.5012703    
 O    3.26183009       1.88321996       17.3925705    
 O    3.15526009       1.82168996       18.6546307    
 O    3.22405005       1.86140001       21.3226204    
 O    3.21535993       1.85639000       22.5446091    
 O    4.29513979       3.67296004       17.3925705    
 O    4.29513979       3.79603004       18.6546307    
 O    4.29513979       3.71659994       21.3226204    
 O    4.29513979       3.72661996       22.5446091    
 O    5.51795006       5.50035000       17.2993107    
 O    5.43083000       5.62456989       18.5781708    
 O    5.42051983       5.57785988       21.2627506    
 O    5.44892979       5.59200001       22.5012703    
 O    6.58582020       7.34994984       17.2993107    
 O    6.43467999       7.36328983       18.5781708    
 O    6.46997976       7.39556980       21.2627506    
 O    6.47194004       7.36389017       22.5012703    
 O    7.55698013       9.32262993       17.3925705    
 O    7.45039988       9.26109028       18.6546307    
 O    7.51918983       9.30080986       21.3226204    
 O    7.51050997       9.29580021       22.5446091    
 O    8.59029007       11.1123695       17.3925705    
 O    8.59029007       11.2354403       18.6546307    
 O    8.59029007       11.1560001       21.3226204    
 O    8.59029007       11.1660299       22.5446091    
 O    9.81309032       12.9397497       17.2993107    
 O    9.72597027       13.0639801       18.5781708    
 O    9.71566963       13.0172596       21.2627506    
 O    9.74407959       13.0314102       22.5012703    
 O    4.29513979     -0.486699998       17.4861507    
 O    4.29513979      -4.35900018E-02   18.6651497    
 O    4.29513979      -4.93699983E-02   21.2670193    
 O    4.29513979     -0.138029993       22.5023899    
 O    5.32845020       1.88321996       17.3925705    
 O    5.43502998       1.82168996       18.6546307    
 O    5.36624002       1.86140001       21.3226204    
 O    5.37491989       1.85639000       22.5446091    
 O    6.86421013       3.96304989       17.4861507    
 O    6.48047018       3.74149990       18.6651497    
 O    6.48546982       3.74439001       21.2670193    
 O    6.56225014       3.78871989       22.5023899    
 O    7.26531982       5.72456980       15.2909298    
 O    7.58938980       5.53746986       19.1250000    
 O    7.55500984       5.55732012       20.3679409    
 O    7.84251022       5.39132977       23.4955692    
 O    8.59029007       6.95271015       17.4861507    
 O    8.59029007       7.39581013       18.6651497    
 O    8.59029007       7.39003992       21.2670193    
 O    8.59029007       7.30137014       22.5023899    
 O    9.62360001       9.32262993       17.3925705    
 O    9.73017025       9.26109028       18.6546307    
 O    9.66137981       9.30080986       21.3226204    
 O    9.67006969       9.29580021       22.5446091    
 O    11.1593504       11.4024601       17.4861507    
 O    10.7756100       11.1808996       18.6651497    
 O    10.7806101       11.1837902       21.2670193    
 O    10.8573999       11.2281199       22.5023899    
 O    11.5604696       13.1639795       15.2909298    
 O    11.8845396       12.9768801       19.1250000    
 O    11.8501501       12.9967299       20.3679409    
 O    12.1376600       12.8307400       23.4955692    
 O    6.29961014      -8.94500017E-02   17.2993107    
 O    6.45074987      -7.61199966E-02   18.5781708    
 O    6.41545010      -4.38299999E-02   21.2627506    
 O    6.41348982      -7.55100027E-02   22.5012703    
 O    7.52241993       2.02851009       17.2993107    
 O    7.58644009       1.89094996       18.5781708    
 O    7.54083014       1.90538001       21.2627506    
 O    7.56728983       1.92290998       22.5012703    
 O    8.59029007       3.42967010       15.2909298    
 O    8.59029007       3.80386996       19.1250000    
 O    8.59029007       3.76416993       20.3679409    
 O    8.59029007       4.09614992       23.4955692    
 O    9.91524982       5.72456980       15.2909298    
 O    9.59117985       5.53746986       19.1250000    
 O    9.62555981       5.55732012       20.3679409    
 O    9.33806038       5.39132977       23.4955692    
 O    10.5947504       7.34994984       17.2993107    
 O    10.7458897       7.36328983       18.5781708    
 O    10.7105904       7.39556980       21.2627506    
 O    10.7086401       7.36389017       22.5012703    
 O    11.8175602       9.46792030       17.2993107    
 O    11.8815804       9.33036041       18.5781708    
 O    11.8359699       9.34479046       21.2627506    
 O    11.8624296       9.36231995       22.5012703    
 O    12.8854303       10.8690796       15.2909298    
 O    12.8854303       11.2432804       19.1250000    
 O    12.8854303       11.2035799       20.3679409    
 O    12.8854303       11.5355597       23.4955692    
 O    14.2103901       13.1639795       15.2909298    
 O    13.8863201       12.9768801       19.1250000    
 O    13.9207096       12.9967299       20.3679409    
 O    13.6331997       12.8307400       23.4955692    
 O    8.59029007      -0.00000000       16.7460804    
 O    8.59029007      -0.00000000       18.1161594    
 O    8.59029007      -0.00000000       21.1906700    
 O    8.59029007       0.00000000       22.4504795    
 O    9.65816021       2.02851009       17.2993107    
 O    9.59414005       1.89094996       18.5781708    
 O    9.63973999       1.90538001       21.2627506    
 O    9.61328983       1.92290998       22.5012703    
 O    10.3163605       3.96304989       17.4861507    
 O    10.7001104       3.74149990       18.6651497    
 O    10.6951103       3.74439001       21.2670193    
 O    10.6183205       3.78871989       22.5023899    
 O    11.6626196       5.50035000       17.2993107    
 O    11.7497396       5.62456989       18.5781708    
 O    11.7600498       5.57785988       21.2627506    
 O    11.7316399       5.59200001       22.5012703    
 O    12.8854303       7.43941021       16.7460804    
 O    12.8854303       7.43941021       18.1161594    
 O    12.8854303       7.43941021       21.1906700    
 O    12.8854303       7.43941021       22.4504795    
 O    13.9533005       9.46792030       17.2993107    
 O    13.8892803       9.33036041       18.5781708    
 O    13.9348898       9.34479046       21.2627506    
 O    13.9084301       9.36231995       22.5012703    
 O    14.6115103       11.4024601       17.4861507    
 O    14.9952497       11.1808996       18.6651497    
 O    14.9902496       11.1837902       21.2670193    
 O    14.9134598       11.2281199       22.5023899    
 O    15.9577703       12.9397497       17.2993107    
 O    16.0448895       13.0639801       18.5781708    
 O    16.0551891       13.0172596       21.2627506    
 O    16.0267792       13.0314102       22.5012703    
 O    10.8809605      -8.94500017E-02   17.2993107    
 O    10.7298203      -7.61199966E-02   18.5781708    
 O    10.7651300      -4.38299999E-02   21.2627506    
 O    10.7670803      -7.55100027E-02   22.5012703    
 O    11.8521204       1.88321996       17.3925705    
 O    11.7455397       1.82168996       18.6546307    
 O    11.8143301       1.86140001       21.3226204    
 O    11.8056498       1.85639000       22.5446091    
 O    12.8854303       3.67296004       17.3925705    
 O    12.8854303       3.79603004       18.6546307    
 O    12.8854303       3.71659994       21.3226204    
 O    12.8854303       3.72661996       22.5446091    
 O    14.1082401       5.50035000       17.2993107    
 O    14.0211201       5.62456989       18.5781708    
 O    14.0108099       5.57785988       21.2627506    
 O    14.0392199       5.59200001       22.5012703    
 O    15.1761103       7.34994984       17.2993107    
 O    15.0249701       7.36328983       18.5781708    
 O    15.0602703       7.39556980       21.2627506    
 O    15.0622196       7.36389017       22.5012703    
 O    16.1472607       9.32262993       17.3925705    
 O    16.0406895       9.26109028       18.6546307    
 O    16.1094799       9.30080986       21.3226204    
 O    16.1007900       9.29580021       22.5446091    
 O    17.1805706       11.1123695       17.3925705    
 O    17.1805706       11.2354403       18.6546307    
 O    17.1805706       11.1560001       21.3226204    
 O    17.1805706       11.1660299       22.5446091    
 O    18.4033794       12.9397497       17.2993107    
 O    18.3162594       13.0639801       18.5781708    
 O    18.3059502       13.0172596       21.2627506    
 O    18.3343601       13.0314102       22.5012703    
 O    12.8854303     -0.486699998       17.4861507    
 O    12.8854303      -4.35900018E-02   18.6651497    
 O    12.8854303      -4.93699983E-02   21.2670193    
 O    12.8854303     -0.138029993       22.5023899    
 O    13.9187403       1.88321996       17.3925705    
 O    14.0253201       1.82168996       18.6546307    
 O    13.9565296       1.86140001       21.3226204    
 O    13.9652100       1.85639000       22.5446091    
 O    15.4545002       3.96304989       17.4861507    
 O    15.0707502       3.74149990       18.6651497    
 O    15.0757504       3.74439001       21.2670193    
 O    15.1525402       3.78871989       22.5023899    
 O    15.8556099       5.72456980       15.2909298    
 O    16.1796799       5.53746986       19.1250000    
 O    16.1452999       5.55732012       20.3679409    
 O    16.4328003       5.39132977       23.4955692    
 O    17.1805706       6.95271015       17.4861507    
 O    17.1805706       7.39581013       18.6651497    
 O    17.1805706       7.39003992       21.2670193    
 O    17.1805706       7.30137014       22.5023899    
 O    18.2138805       9.32262993       17.3925705    
 O    18.3204594       9.26109028       18.6546307    
 O    18.2516708       9.30080986       21.3226204    
 O    18.2603493       9.29580021       22.5446091    
 O    19.7496395       11.4024601       17.4861507    
 O    19.3659000       11.1808996       18.6651497    
 O    19.3708992       11.1837902       21.2670193    
 O    19.4476795       11.2281199       22.5023899    
 O    20.1507492       13.1639795       15.2909298    
 O    20.4748192       12.9768801       19.1250000    
 O    20.4404392       12.9967299       20.3679409    
 O    20.7279396       12.8307400       23.4955692    
 O    14.8899002      -8.94500017E-02   17.2993107    
 O    15.0410404      -7.61199966E-02   18.5781708    
 O    15.0057297      -4.38299999E-02   21.2627506    
 O    15.0037804      -7.55100027E-02   22.5012703    
 O    16.1126995       2.02851009       17.2993107    
 O    16.1767197       1.89094996       18.5781708    
 O    16.1311092       1.90538001       21.2627506    
 O    16.1575699       1.92290998       22.5012703    
 O    17.1805706       3.42967010       15.2909298    
 O    17.1805706       3.80386996       19.1250000    
 O    17.1805706       3.76416993       20.3679409    
 O    17.1805706       4.09614992       23.4955692    
 O    18.5055408       5.72456980       15.2909298    
 O    18.1814709       5.53746986       19.1250000    
 O    18.2158508       5.55732012       20.3679409    
 O    17.9283504       5.39132977       23.4955692    
 O    19.1850395       7.34994984       17.2993107    
 O    19.3361797       7.36328983       18.5781708    
 O    19.3008804       7.39556980       21.2627506    
 O    19.2989197       7.36389017       22.5012703    
 O    20.4078503       9.46792030       17.2993107    
 O    20.4718704       9.33036041       18.5781708    
 O    20.4262600       9.34479046       21.2627506    
 O    20.4527206       9.36231995       22.5012703    
 O    21.4757195       10.8690796       15.2909298    
 O    21.4757195       11.2432804       19.1250000    
 O    21.4757195       11.2035799       20.3679409    
 O    21.4757195       11.5355597       23.4955692    
 O    22.8006802       13.1639795       15.2909298    
 O    22.4766102       12.9768801       19.1250000    
 O    22.5109901       12.9967299       20.3679409    
 O    22.2234898       12.8307400       23.4955692    
