   4   4   0   0
  0.7621563E+03  0.1450000E-08  0.1450000E-08  0.1450000E-08  0.5000000E-15
   1.0000000000000000E-004
  CAR 
 NiAl                                    
      2.32471248    -52.56987643  301     -2.18794833      1.00000000
    -52.570  0.0000E+00  0.0000E+00
    -52.387  0.0000E+00  0.0000E+00
    -52.204  0.0000E+00  0.0000E+00
    -52.021  0.0000E+00  0.0000E+00
    -51.838  0.0000E+00  0.0000E+00
    -51.655  0.0000E+00  0.0000E+00
    -51.472  0.0000E+00  0.0000E+00
    -51.289  0.0000E+00  0.0000E+00
    -51.106  0.0000E+00  0.0000E+00
    -50.923  0.0000E+00  0.0000E+00
    -50.740  0.0000E+00  0.0000E+00
    -50.557  0.0000E+00  0.0000E+00
    -50.374  0.0000E+00  0.0000E+00
    -50.191  0.5407E-02  0.9895E-03
    -50.008  0.1060E+02  0.1940E+01
    -49.825  0.3270E+00  0.2000E+01
    -49.642  0.0000E+00  0.2000E+01
    -49.459  0.0000E+00  0.2000E+01
    -49.276  0.0000E+00  0.2000E+01
    -49.093  0.0000E+00  0.2000E+01
    -48.910  0.0000E+00  0.2000E+01
    -48.727  0.0000E+00  0.2000E+01
    -48.544  0.0000E+00  0.2000E+01
    -48.361  0.0000E+00  0.2000E+01
    -48.178  0.0000E+00  0.2000E+01
    -47.995  0.0000E+00  0.2000E+01
    -47.812  0.0000E+00  0.2000E+01
    -47.629  0.0000E+00  0.2000E+01
    -47.446  0.0000E+00  0.2000E+01
    -47.263  0.0000E+00  0.2000E+01
    -47.080  0.0000E+00  0.2000E+01
    -46.897  0.0000E+00  0.2000E+01
    -46.714  0.0000E+00  0.2000E+01
    -46.531  0.0000E+00  0.2000E+01
    -46.348  0.0000E+00  0.2000E+01
    -46.166  0.0000E+00  0.2000E+01
    -45.983  0.0000E+00  0.2000E+01
    -45.800  0.0000E+00  0.2000E+01
    -45.617  0.0000E+00  0.2000E+01
    -45.434  0.0000E+00  0.2000E+01
    -45.251  0.0000E+00  0.2000E+01
    -45.068  0.0000E+00  0.2000E+01
    -44.885  0.0000E+00  0.2000E+01
    -44.702  0.0000E+00  0.2000E+01
    -44.519  0.0000E+00  0.2000E+01
    -44.336  0.0000E+00  0.2000E+01
    -44.153  0.0000E+00  0.2000E+01
    -43.970  0.0000E+00  0.2000E+01
    -43.787  0.0000E+00  0.2000E+01
    -43.604  0.0000E+00  0.2000E+01
    -43.421  0.0000E+00  0.2000E+01
    -43.238  0.0000E+00  0.2000E+01
    -43.055  0.0000E+00  0.2000E+01
    -42.872  0.0000E+00  0.2000E+01
    -42.689  0.0000E+00  0.2000E+01
    -42.506  0.0000E+00  0.2000E+01
    -42.323  0.0000E+00  0.2000E+01
    -42.140  0.0000E+00  0.2000E+01
    -41.957  0.0000E+00  0.2000E+01
    -41.774  0.0000E+00  0.2000E+01
    -41.591  0.0000E+00  0.2000E+01
    -41.408  0.0000E+00  0.2000E+01
    -41.225  0.0000E+00  0.2000E+01
    -41.042  0.0000E+00  0.2000E+01
    -40.859  0.0000E+00  0.2000E+01
    -40.676  0.0000E+00  0.2000E+01
    -40.493  0.0000E+00  0.2000E+01
    -40.310  0.0000E+00  0.2000E+01
    -40.127  0.0000E+00  0.2000E+01
    -39.944  0.0000E+00  0.2000E+01
    -39.761  0.0000E+00  0.2000E+01
    -39.578  0.0000E+00  0.2000E+01
    -39.395  0.0000E+00  0.2000E+01
    -39.212  0.0000E+00  0.2000E+01
    -39.029  0.0000E+00  0.2000E+01
    -38.846  0.0000E+00  0.2000E+01
    -38.663  0.0000E+00  0.2000E+01
    -38.480  0.0000E+00  0.2000E+01
    -38.297  0.0000E+00  0.2000E+01
    -38.114  0.0000E+00  0.2000E+01
    -37.931  0.0000E+00  0.2000E+01
    -37.748  0.0000E+00  0.2000E+01
    -37.565  0.0000E+00  0.2000E+01
    -37.382  0.0000E+00  0.2000E+01
    -37.199  0.0000E+00  0.2000E+01
    -37.016  0.0000E+00  0.2000E+01
    -36.833  0.0000E+00  0.2000E+01
    -36.650  0.0000E+00  0.2000E+01
    -36.467  0.0000E+00  0.2000E+01
    -36.284  0.0000E+00  0.2000E+01
    -36.101  0.0000E+00  0.2000E+01
    -35.919  0.0000E+00  0.2000E+01
    -35.736  0.0000E+00  0.2000E+01
    -35.553  0.0000E+00  0.2000E+01
    -35.370  0.0000E+00  0.2000E+01
    -35.187  0.0000E+00  0.2000E+01
    -35.004  0.0000E+00  0.2000E+01
    -34.821  0.0000E+00  0.2000E+01
    -34.638  0.0000E+00  0.2000E+01
    -34.455  0.0000E+00  0.2000E+01
    -34.272  0.0000E+00  0.2000E+01
    -34.089  0.0000E+00  0.2000E+01
    -33.906  0.0000E+00  0.2000E+01
    -33.723  0.5264E-02  0.2001E+01
    -33.540  0.1059E+02  0.3939E+01
    -33.357  0.3327E+00  0.4000E+01
    -33.174  0.0000E+00  0.4000E+01
    -32.991  0.0000E+00  0.4000E+01
    -32.808  0.0000E+00  0.4000E+01
    -32.625  0.0000E+00  0.4000E+01
    -32.442  0.8702E-05  0.4000E+01
    -32.259  0.7068E+01  0.5293E+01
    -32.076  0.3862E+01  0.6000E+01
    -31.893  0.1546E-06  0.6000E+01
    -31.710  0.0000E+00  0.6000E+01
    -31.527  0.0000E+00  0.6000E+01
    -31.344  0.0000E+00  0.6000E+01
    -31.161  0.0000E+00  0.6000E+01
    -30.978  0.0000E+00  0.6000E+01
    -30.795  0.0000E+00  0.6000E+01
    -30.612  0.0000E+00  0.6000E+01
    -30.429  0.0000E+00  0.6000E+01
    -30.246  0.0000E+00  0.6000E+01
    -30.063  0.0000E+00  0.6000E+01
    -29.880  0.0000E+00  0.6000E+01
    -29.697  0.0000E+00  0.6000E+01
    -29.514  0.0000E+00  0.6000E+01
    -29.331  0.0000E+00  0.6000E+01
    -29.148  0.0000E+00  0.6000E+01
    -28.965  0.0000E+00  0.6000E+01
    -28.782  0.0000E+00  0.6000E+01
    -28.599  0.0000E+00  0.6000E+01
    -28.416  0.0000E+00  0.6000E+01
    -28.233  0.0000E+00  0.6000E+01
    -28.050  0.0000E+00  0.6000E+01
    -27.867  0.0000E+00  0.6000E+01
    -27.684  0.0000E+00  0.6000E+01
    -27.501  0.0000E+00  0.6000E+01
    -27.318  0.0000E+00  0.6000E+01
    -27.135  0.0000E+00  0.6000E+01
    -26.952  0.0000E+00  0.6000E+01
    -26.769  0.0000E+00  0.6000E+01
    -26.586  0.0000E+00  0.6000E+01
    -26.403  0.0000E+00  0.6000E+01
    -26.220  0.0000E+00  0.6000E+01
    -26.037  0.0000E+00  0.6000E+01
    -25.855  0.0000E+00  0.6000E+01
    -25.672  0.0000E+00  0.6000E+01
    -25.489  0.0000E+00  0.6000E+01
    -25.306  0.6601E-05  0.6000E+01
    -25.123  0.1254E+02  0.8294E+01
    -24.940  0.9321E+01  0.1000E+02
    -24.757  0.9042E-06  0.1000E+02
    -24.574  0.0000E+00  0.1000E+02
    -24.391  0.0000E+00  0.1000E+02
    -24.208  0.0000E+00  0.1000E+02
    -24.025  0.0000E+00  0.1000E+02
    -23.842  0.0000E+00  0.1000E+02
    -23.659  0.0000E+00  0.1000E+02
    -23.476  0.0000E+00  0.1000E+02
    -23.293  0.0000E+00  0.1000E+02
    -23.110  0.0000E+00  0.1000E+02
    -22.927  0.0000E+00  0.1000E+02
    -22.744  0.0000E+00  0.1000E+02
    -22.561  0.0000E+00  0.1000E+02
    -22.378  0.0000E+00  0.1000E+02
    -22.195  0.0000E+00  0.1000E+02
    -22.012  0.0000E+00  0.1000E+02
    -21.829  0.0000E+00  0.1000E+02
    -21.646  0.0000E+00  0.1000E+02
    -21.463  0.0000E+00  0.1000E+02
    -21.280  0.0000E+00  0.1000E+02
    -21.097  0.0000E+00  0.1000E+02
    -20.914  0.0000E+00  0.1000E+02
    -20.731  0.0000E+00  0.1000E+02
    -20.548  0.0000E+00  0.1000E+02
    -20.365  0.0000E+00  0.1000E+02
    -20.182  0.0000E+00  0.1000E+02
    -19.999  0.0000E+00  0.1000E+02
    -19.816  0.0000E+00  0.1000E+02
    -19.633  0.0000E+00  0.1000E+02
    -19.450  0.0000E+00  0.1000E+02
    -19.267  0.0000E+00  0.1000E+02
    -19.084  0.0000E+00  0.1000E+02
    -18.901  0.0000E+00  0.1000E+02
    -18.718  0.0000E+00  0.1000E+02
    -18.535  0.0000E+00  0.1000E+02
    -18.352  0.0000E+00  0.1000E+02
    -18.169  0.0000E+00  0.1000E+02
    -17.986  0.0000E+00  0.1000E+02
    -17.803  0.0000E+00  0.1000E+02
    -17.620  0.0000E+00  0.1000E+02
    -17.437  0.0000E+00  0.1000E+02
    -17.254  0.4654E-04  0.1000E+02
    -17.071  0.8366E+01  0.1153E+02
    -16.888  0.2564E+01  0.1200E+02
    -16.705  0.2602E-07  0.1200E+02
    -16.522  0.1962E+01  0.1236E+02
    -16.339  0.8968E+01  0.1400E+02
    -16.156  0.1126E-03  0.1400E+02
    -15.973  0.0000E+00  0.1400E+02
    -15.791  0.0000E+00  0.1400E+02
    -15.608  0.0000E+00  0.1400E+02
    -15.425  0.0000E+00  0.1400E+02
    -15.242  0.0000E+00  0.1400E+02
    -15.059  0.0000E+00  0.1400E+02
    -14.876  0.0000E+00  0.1400E+02
    -14.693  0.0000E+00  0.1400E+02
    -14.510  0.0000E+00  0.1400E+02
    -14.327  0.0000E+00  0.1400E+02
    -14.144  0.0000E+00  0.1400E+02
    -13.961  0.0000E+00  0.1400E+02
    -13.778  0.0000E+00  0.1400E+02
    -13.595  0.0000E+00  0.1400E+02
    -13.412  0.0000E+00  0.1400E+02
    -13.229  0.0000E+00  0.1400E+02
    -13.046  0.0000E+00  0.1400E+02
    -12.863  0.0000E+00  0.1400E+02
    -12.680  0.0000E+00  0.1400E+02
    -12.497  0.0000E+00  0.1400E+02
    -12.314  0.0000E+00  0.1400E+02
    -12.131  0.0000E+00  0.1400E+02
    -11.948  0.3626E-09  0.1400E+02
    -11.765  0.1588E+01  0.1429E+02
    -11.582  0.2027E+02  0.1800E+02
    -11.399  0.2184E-02  0.1800E+02
    -11.216  0.0000E+00  0.1800E+02
    -11.033  0.0000E+00  0.1800E+02
    -10.850  0.0000E+00  0.1800E+02
    -10.667  0.0000E+00  0.1800E+02
    -10.484  0.0000E+00  0.1800E+02
    -10.301  0.0000E+00  0.1800E+02
    -10.118  0.0000E+00  0.1800E+02
     -9.935  0.0000E+00  0.1800E+02
     -9.752  0.0000E+00  0.1800E+02
     -9.569  0.0000E+00  0.1800E+02
     -9.386  0.0000E+00  0.1800E+02
     -9.203  0.0000E+00  0.1800E+02
     -9.020  0.0000E+00  0.1800E+02
     -8.837  0.2548E-13  0.1800E+02
     -8.654  0.6551E-01  0.1801E+02
     -8.471  0.2163E+02  0.2197E+02
     -8.288  0.1662E+00  0.2200E+02
     -8.105  0.0000E+00  0.2200E+02
     -7.922  0.0000E+00  0.2200E+02
     -7.739  0.0000E+00  0.2200E+02
     -7.556  0.0000E+00  0.2200E+02
     -7.373  0.0000E+00  0.2200E+02
     -7.190  0.0000E+00  0.2200E+02
     -7.007  0.0000E+00  0.2200E+02
     -6.824  0.0000E+00  0.2200E+02
     -6.641  0.0000E+00  0.2200E+02
     -6.458  0.0000E+00  0.2200E+02
     -6.275  0.0000E+00  0.2200E+02
     -6.092  0.0000E+00  0.2200E+02
     -5.909  0.0000E+00  0.2200E+02
     -5.726  0.0000E+00  0.2200E+02
     -5.544  0.0000E+00  0.2200E+02
     -5.361  0.0000E+00  0.2200E+02
     -5.178  0.0000E+00  0.2200E+02
     -4.995  0.0000E+00  0.2200E+02
     -4.812  0.0000E+00  0.2200E+02
     -4.629  0.0000E+00  0.2200E+02
     -4.446  0.0000E+00  0.2200E+02
     -4.263  0.0000E+00  0.2200E+02
     -4.080  0.0000E+00  0.2200E+02
     -3.897  0.0000E+00  0.2200E+02
     -3.714  0.0000E+00  0.2200E+02
     -3.531  0.0000E+00  0.2200E+02
     -3.348  0.0000E+00  0.2200E+02
     -3.165  0.0000E+00  0.2200E+02
     -2.982  0.0000E+00  0.2200E+02
     -2.799  0.0000E+00  0.2200E+02
     -2.616  0.0000E+00  0.2200E+02
     -2.433  0.4984E-11  0.2200E+02
     -2.250  0.5061E+00  0.2209E+02
     -2.067  0.3223E+02  0.2799E+02
     -1.884  0.5364E-01  0.2800E+02
     -1.701  0.0000E+00  0.2800E+02
     -1.518  0.0000E+00  0.2800E+02
     -1.335  0.0000E+00  0.2800E+02
     -1.152  0.0000E+00  0.2800E+02
     -0.969  0.9671E-06  0.2800E+02
     -0.786  0.5262E+01  0.2896E+02
     -0.603  0.5668E+01  0.3000E+02
     -0.420  0.1592E-05  0.3000E+02
     -0.237  0.3270E+00  0.3006E+02
     -0.054  0.1060E+02  0.3200E+02
      0.129  0.5407E-02  0.3200E+02
      0.312  0.0000E+00  0.3200E+02
      0.495  0.0000E+00  0.3200E+02
      0.678  0.0000E+00  0.3200E+02
      0.861  0.0000E+00  0.3200E+02
      1.044  0.0000E+00  0.3200E+02
      1.227  0.0000E+00  0.3200E+02
      1.410  0.0000E+00  0.3200E+02
      1.593  0.0000E+00  0.3200E+02
      1.776  0.0000E+00  0.3200E+02
      1.959  0.0000E+00  0.3200E+02
      2.142  0.0000E+00  0.3200E+02
      2.325  0.0000E+00  0.3200E+02
