    1    1    1    1
  0.3048625E+04  0.1450000E-08  0.1450000E-08  0.1450000E-08  0.5000000E-15
   1.0000000000000000E-004
  CAR 
 NiAl                                    
      6      4      7
 
  0.1262379E-14  0.1262379E-14  0.1262379E-14  0.1250000E+00
    1      -24.002062   1.000000
    2       -8.982997   0.663584
    3       -8.982997   0.663584
    4       -8.982997   0.663584
    5       -0.258917   0.000000
    6        0.300828   0.000000
    7        0.571840   0.000000
 
  0.5000000E+00  0.1262379E-14  0.1262379E-14  0.3750000E+00
    1      -24.002171   1.000000
    2       -8.984375   0.677690
    3       -8.984375   0.677690
    4       -8.982721   0.660735
    5       -0.188592   0.000000
    6        0.096727   0.000000
    7        0.501578   0.000000
 
  0.5000000E+00  0.5000000E+00  0.1262379E-14  0.3750000E+00
    1      -24.002095   1.000000
    2       -8.983993   0.673803
    3       -8.982781   0.661356
    4       -8.982781   0.661356
    5       -0.134920   0.000000
    6        0.248985   0.000000
    7        0.248993   0.000000
 
  0.5000000E+00  0.5000000E+00  0.5000000E+00  0.1250000E+00
    1      -24.002003   1.000000
    2       -8.982373   0.657118
    3       -8.982373   0.657118
    4       -8.982373   0.657118
    5       -0.092217   0.000000
    6        0.385349   0.000000
    7        0.385350   0.000000
