<?xml version="1.0" encoding="ISO-8859-1"?>
<modeling>
 <generator>
  <i name="program" type="string">vasp </i>
  <i name="version" type="string">6.2.1  </i>
  <i name="subversion" type="string">16May21 (build Jun 16 2021 03:23:30) complex                          parallel </i>
  <i name="platform" type="string">LinuxPGI </i>
  <i name="date" type="string">2022 04 23 </i>
  <i name="time" type="string">21:43:23 </i>
 </generator>
 <incar>
  <i type="string" name="SYSTEM">NiAl</i>
  <i type="int" name="ISTART">     0</i>
  <i type="int" name="NELMIN">     6</i>
  <i name="EDIFF">      0.00000010</i>
  <i name="ENCUT">    360.00000000</i>
  <i type="string" name="LREAL">Auto</i>
  <i type="logical" name="LPLANE"> T  </i>
  <i type="int" name="ISMEAR">     0</i>
  <i name="SIGMA">      0.05000000</i>
  <i type="logical" name="LWAVE"> F  </i>
  <i type="logical" name="LCHARG"> F  </i>
  <i type="int" name="IVDW">    12</i>
 </incar>
 <primitive_cell>
  <structure name="primitive_cell" >
   <crystal>
    <varray name="basis" >
     <v>      14.50000000       0.00000000       0.00000000 </v>
     <v>       0.00000000      14.50000000       0.00000000 </v>
     <v>       0.00000000       0.00000000      14.50000000 </v>
    </varray>
    <i name="volume">   3048.62500000 </i>
    <varray name="rec_basis" >
     <v>       0.06896552       0.00000000       0.00000000 </v>
     <v>       0.00000000       0.06896552       0.00000000 </v>
     <v>       0.00000000       0.00000000       0.06896552 </v>
    </varray>
   </crystal>
   <varray name="positions" >
    <v>       0.00000000       0.00000000       0.00000000 </v>
   </varray>
  </structure>
  <varray name="primitive_index" >
   <v type="int" >        1 </v>
  </varray>
 </primitive_cell>
 <kpoints>
  <generation param="Gamma">
   <v type="int" name="divisions">       2        2        2 </v>
   <v name="usershift">      0.00000000       0.00000000       0.00000000 </v>
   <v name="genvec1">      0.50000000       0.00000000       0.00000000 </v>
   <v name="genvec2">      0.00000000       0.50000000       0.00000000 </v>
   <v name="genvec3">      0.00000000       0.00000000       0.50000000 </v>
   <v name="shift">      0.00000000       0.00000000       0.00000000 </v>
  </generation>
  <varray name="kpointlist" >
   <v>       0.00000000       0.00000000       0.00000000 </v>
   <v>       0.50000000       0.00000000       0.00000000 </v>
   <v>       0.50000000       0.50000000       0.00000000 </v>
   <v>       0.50000000       0.50000000       0.50000000 </v>
  </varray>
  <varray name="weights" >
   <v>       0.12500000 </v>
   <v>       0.37500000 </v>
   <v>       0.37500000 </v>
   <v>       0.12500000 </v>
  </varray>
 </kpoints>
 <parameters>
  <separator name="general" >
   <i type="string" name="SYSTEM">NiAl</i>
   <i type="logical" name="LCOMPAT"> F  </i>
  </separator>
  <separator name="electronic" >
   <i type="string" name="PREC">normal</i>
   <i name="ENMAX">    360.00000000</i>
   <i name="ENAUG">   1139.60900000</i>
   <i name="EDIFF">      0.00000010</i>
   <i type="int" name="IALGO">    38</i>
   <i type="int" name="IWAVPR">    10</i>
   <i type="int" name="NBANDS">     7</i>
   <i type="int" name="NBANDSLOW">    -1</i>
   <i type="int" name="NBANDSHIGH">    -1</i>
   <i name="NELECT">      6.00000000</i>
   <i type="int" name="TURBO">     0</i>
   <i type="int" name="IRESTART">     0</i>
   <i type="int" name="NREBOOT">     0</i>
   <i type="int" name="NMIN">     0</i>
   <i name="EREF">      0.00000000</i>
   <separator name="electronic smearing" >
    <i type="int" name="ISMEAR">     0</i>
    <i name="SIGMA">      0.05000000</i>
    <i name="KSPACING">      0.50000000</i>
    <i type="logical" name="KGAMMA"> T  </i>
    <i type="logical" name="KBLOWUP"> T  </i>
   </separator>
   <separator name="electronic projectors" >
    <i type="logical" name="LREAL"> T  </i>
    <v name="ROPT">     -0.00050000</v>
    <i type="int" name="LMAXPAW">  -100</i>
    <i type="int" name="LMAXMIX">     2</i>
    <i type="logical" name="NLSPLINE"> F  </i>
   </separator>
   <separator name="electronic startup" >
    <i type="int" name="ISTART">     0</i>
    <i type="int" name="ICHARG">     2</i>
    <i type="int" name="INIWAV">     1</i>
   </separator>
   <separator name="electronic spin" >
    <i type="int" name="ISPIN">     1</i>
    <i type="logical" name="LNONCOLLINEAR"> F  </i>
    <v name="MAGMOM">      1.00000000</v>
    <i name="NUPDOWN">     -1.00000000</i>
    <i type="logical" name="LSORBIT"> F  </i>
    <v name="SAXIS">      0.00000000      0.00000000      1.00000000</v>
    <i type="logical" name="LSPIRAL"> F  </i>
    <v name="QSPIRAL">      0.00000000      0.00000000      0.00000000</v>
    <i type="logical" name="LZEROZ"> F  </i>
   </separator>
   <separator name="electronic exchange-correlation" >
    <i type="logical" name="LASPH"> F  </i>
    <i type="logical" name="LMETAGGA"> F  </i>
   </separator>
   <separator name="electronic convergence" >
    <i type="int" name="NELM">    60</i>
    <i type="int" name="NELMDL">    -5</i>
    <i type="int" name="NELMIN">     6</i>
    <i name="ENINI">    360.00000000</i>
    <separator name="electronic convergence detail" >
     <i type="logical" name="LDIAG"> T  </i>
     <i type="logical" name="LSUBROT"> F  </i>
     <i name="WEIMIN">      0.00000000</i>
     <i name="EBREAK">      0.00000000</i>
     <i name="DEPER">      0.30000000</i>
     <i type="int" name="NRMM">     4</i>
     <i name="TIME">      0.40000000</i>
    </separator>
   </separator>
   <separator name="electronic mixer" >
    <i name="AMIX">      0.40000000</i>
    <i name="BMIX">      1.00000000</i>
    <i name="AMIN">      0.10000000</i>
    <i name="AMIX_MAG">      1.60000000</i>
    <i name="BMIX_MAG">      1.00000000</i>
    <separator name="electronic mixer details" >
     <i type="int" name="IMIX">     4</i>
     <i type="logical" name="MIXFIRST"> F  </i>
     <i type="int" name="MAXMIX">   -45</i>
     <i name="WC">    100.00000000</i>
     <i type="int" name="INIMIX">     1</i>
     <i type="int" name="MIXPRE">     1</i>
     <i type="int" name="MREMOVE">     5</i>
    </separator>
   </separator>
   <separator name="electronic dipolcorrection" >
    <i type="logical" name="LDIPOL"> F  </i>
    <i type="logical" name="LMONO"> F  </i>
    <i type="int" name="IDIPOL">     0</i>
    <i name="EPSILON">      1.00000000</i>
    <v name="DIPOL">   -100.00000000   -100.00000000   -100.00000000</v>
    <i name="EFIELD">      0.00000000</i>
   </separator>
  </separator>
  <separator name="grids" >
   <i type="int" name="NGX">    70</i>
   <i type="int" name="NGY">    70</i>
   <i type="int" name="NGZ">    70</i>
   <i type="int" name="NGXF">   140</i>
   <i type="int" name="NGYF">   140</i>
   <i type="int" name="NGZF">   140</i>
   <i type="logical" name="ADDGRID"> F  </i>
  </separator>
  <separator name="ionic" >
   <i type="int" name="NSW">     0</i>
   <i type="int" name="IBRION">    -1</i>
   <i type="int" name="MDALGO">     0</i>
   <i type="int" name="ISIF">     2</i>
   <i name="PSTRESS">      0.00000000</i>
   <i name="EDIFFG">      0.00000100</i>
   <i type="int" name="NFREE">     0</i>
   <i name="POTIM">      0.50000000</i>
   <i name="SMASS">     -3.00000000</i>
   <i name="SCALEE">      1.00000000</i>
  </separator>
  <separator name="ionic md" >
   <i name="TEBEG">      0.00010000</i>
   <i name="TEEND">      0.00010000</i>
   <i type="int" name="NBLOCK">     1</i>
   <i type="int" name="KBLOCK">     1</i>
   <i type="int" name="NPACO">   256</i>
   <i name="APACO">     16.00000000</i>
  </separator>
  <separator name="symmetry" >
   <i type="int" name="ISYM">     2</i>
   <i name="SYMPREC">      0.00001000</i>
  </separator>
  <separator name="dos" >
   <i type="int" name="LORBIT">     0</i>
   <v name="RWIGS">     -1.00000000</v>
   <i type="int" name="NEDOS">   301</i>
   <i name="EMIN">     10.00000000</i>
   <i name="EMAX">    -10.00000000</i>
   <i name="EFERMI">      0.00000000</i>
  </separator>
  <separator name="writing" >
   <i type="int" name="NWRITE">     2</i>
   <i type="logical" name="LWAVE"> F  </i>
   <i type="logical" name="LDOWNSAMPLE"> F  </i>
   <i type="logical" name="LCHARG"> F  </i>
   <i type="logical" name="LPARD"> F  </i>
   <i type="logical" name="LVTOT"> F  </i>
   <i type="logical" name="LVHAR"> F  </i>
   <i type="logical" name="LELF"> F  </i>
   <i type="logical" name="LOPTICS"> F  </i>
   <v name="STM">      0.00000000      0.00000000      0.00000000      0.00000000      0.00000000      0.00000000      0.00000000</v>
  </separator>
  <separator name="performance" >
   <i type="int" name="NPAR">     1</i>
   <i type="int" name="NSIM">     4</i>
   <i type="int" name="NBLK">    -1</i>
   <i type="logical" name="LPLANE"> T  </i>
   <i type="logical" name="LSCALAPACK"> T  </i>
   <i type="logical" name="LSCAAWARE"> F  </i>
   <i type="logical" name="LSCALU"> F  </i>
   <i type="logical" name="LASYNC"> F  </i>
   <i type="logical" name="LORBITALREAL"> F  </i>
  </separator>
  <separator name="miscellaneous" >
   <i type="int" name="IDIOT">     3</i>
   <i type="int" name="PHON_NSTRUCT">    -1</i>
   <i type="logical" name="LMUSIC"> F  </i>
   <v name="POMASS">     16.00000000</v>
   <v name="DARWINR">      0.00000000</v>
   <v name="DARWINV">      1.00000000</v>
   <i type="logical" name="LCORR"> T  </i>
  </separator>
  <i type="logical" name="GGA_COMPAT"> T  </i>
  <i type="logical" name="LBERRY"> F  </i>
  <i type="int" name="ICORELEVEL">     0</i>
  <i type="logical" name="LDAU"> F  </i>
  <i type="int" name="I_CONSTRAINED_M">     0</i>
  <separator name="electronic exchange-correlation" >
   <i type="string" name="GGA">--</i>
   <i type="int" name="VOSKOWN">     0</i>
   <i type="logical" name="LHFCALC"> F  </i>
   <i type="string" name="PRECFOCK"></i>
   <i type="logical" name="LSYMGRAD"> F  </i>
   <i type="logical" name="LHFONE"> F  </i>
   <i type="logical" name="LRHFCALC"> F  </i>
   <i type="logical" name="LTHOMAS"> F  </i>
   <i type="logical" name="LMODELHF"> F  </i>
   <i type="logical" name="LFOCKACE"> F  </i>
   <i name="ENCUT4O">     -1.00000000</i>
   <i type="int" name="EXXOEP">     0</i>
   <i type="int" name="FOURORBIT">     0</i>
   <i name="AEXX">      0.00000000</i>
   <i name="HFALPHA">      0.00000000</i>
   <i name="MCALPHA">      0.00000000</i>
   <i name="ALDAX">      1.00000000</i>
   <i name="AGGAX">      1.00000000</i>
   <i name="ALDAC">      1.00000000</i>
   <i name="AGGAC">      1.00000000</i>
   <i type="int" name="NKREDX">     1</i>
   <i type="int" name="NKREDY">     1</i>
   <i type="int" name="NKREDZ">     1</i>
   <i type="logical" name="SHIFTRED"> F  </i>
   <i type="logical" name="ODDONLY"> F  </i>
   <i type="logical" name="EVENONLY"> F  </i>
   <i type="int" name="LMAXFOCK">     0</i>
   <i type="int" name="NMAXFOCKAE">     0</i>
   <i type="logical" name="LFOCKAEDFT"> F  </i>
   <i name="HFSCREEN">      0.00000000</i>
   <i name="HFSCREENC">      0.00000000</i>
   <i type="int" name="NBANDSGWLOW">     0</i>
  </separator>
  <separator name="vdW DFT" >
   <i type="logical" name="LUSE_VDW"> F  </i>
   <i name="Zab_VDW">     -0.84910000</i>
   <i name="PARAM1">      0.12340000</i>
   <i name="PARAM2">      1.00000000</i>
   <i name="PARAM3">      0.00000000</i>
  </separator>
  <separator name="model GW" >
   <i type="int" name="MODEL_GW">     0</i>
   <i name="MODEL_EPS0">   1829.17500000</i>
   <i name="MODEL_ALPHA">      1.00000000</i>
  </separator>
  <separator name="linear response parameters" >
   <i type="logical" name="LEPSILON"> F  </i>
   <i type="logical" name="LRPA"> F  </i>
   <i type="logical" name="LNABLA"> F  </i>
   <i type="logical" name="LVEL"> F  </i>
   <i type="int" name="KINTER">     0</i>
   <i name="CSHIFT">      0.10000000</i>
   <i name="OMEGAMAX">     -1.00000000</i>
   <i name="DEG_THRESHOLD">      0.00200000</i>
   <i name="RTIME">     -0.10000000</i>
   <i name="WPLASMAI">      0.00000000</i>
   <v name="DFIELD">      0.00000000      0.00000000      0.00000000</v>
   <v name="WPLASMA">      0.00000000      0.00000000      0.00000000      0.00000000      0.00000000      0.00000000      0.00000000      0.00000000      0.00000000</v>
  </separator>
  <separator name="orbital magnetization" >
   <i type="logical" name="NUCIND"> F  </i>
   <v name="MAGPOS">      0.00000000      0.00000000      0.00000000</v>
   <i type="logical" name="LNICSALL"> T  </i>
   <i type="logical" name="ORBITALMAG"> F  </i>
   <i type="logical" name="LMAGBLOCH"> F  </i>
   <i type="logical" name="LCHIMAG"> F  </i>
   <i type="logical" name="LGAUGE"> T  </i>
   <i type="int" name="MAGATOM">     0</i>
   <v name="MAGDIPOL">      0.00000000      0.00000000      0.00000000</v>
   <v name="AVECCONST">      0.00000000      0.00000000      0.00000000</v>
  </separator>
  <separator name="response functions" >
   <i type="logical" name="LFINITE_TEMPERATURE"> F  </i>
   <i type="logical" name="LADDER"> F  </i>
   <i type="logical" name="LRPAFORCE"> F  </i>
   <i type="logical" name="LFXC"> F  </i>
   <i type="logical" name="LHARTREE"> T  </i>
   <i type="int" name="IBSE">     0</i>
   <v type="int" name="KPOINT">    -1     0     0     0</v>
   <i type="logical" name="LTCTC"> F  </i>
   <i type="logical" name="LTCTE"> F  </i>
   <i type="logical" name="LTETE"> F  </i>
   <i type="logical" name="LTRIPLET"> F  </i>
   <i type="logical" name="LFXCEPS"> F  </i>
   <i type="logical" name="LFXHEG"> F  </i>
   <i type="int" name="NATURALO">     2</i>
   <i type="logical" name="LHOLEGF"> F  </i>
   <i type="logical" name="L2ORDER"> F  </i>
   <i type="logical" name="LDMP1"> F  </i>
   <i type="logical" name="LMP2LT"> F  </i>
   <i type="logical" name="LSMP2LT"> F  </i>
   <i type="logical" name="LGWLF"> F  </i>
   <i name="ENCUTGW">     -2.00000000</i>
   <i name="ENCUTGWSOFT">     -2.00000000</i>
   <i name="ENCUTLF">     -1.00000000</i>
   <i type="logical" name="LESF_SPLINES"> F  </i>
   <i type="int" name="LMAXMP2">    -1</i>
   <i name="SCISSOR">      0.00000000</i>
   <i type="int" name="NOMEGA">     0</i>
   <i type="int" name="NOMEGAR">     0</i>
   <i type="int" name="NBANDSGW">    -1</i>
   <i type="int" name="NBANDSO">    -1</i>
   <i type="int" name="NBANDSV">    -1</i>
   <i type="int" name="NELM">     1</i>
   <i type="int" name="NELMHF">     1</i>
   <i type="int" name="DIM">     3</i>
   <i type="int" name="IESPILON">     4</i>
   <i type="int" name="ANTIRES">     0</i>
   <i name="OMEGAMAX">    -30.00000000</i>
   <i name="OMEGAMIN">    -30.00000000</i>
   <i name="OMEGATL">   -200.00000000</i>
   <i type="int" name="OMEGAGRID">     0</i>
   <i name="CSHIFT">     -0.10000000</i>
   <i type="logical" name="LSELFENERGY"> F  </i>
   <i type="logical" name="LSPECTRAL"> F  </i>
   <i type="logical" name="LSPECTRALGW"> F  </i>
   <i type="logical" name="LSINGLES"> F  </i>
   <i type="logical" name="LFERMIGW"> F  </i>
   <i type="logical" name="ODDONLYGW"> F  </i>
   <i type="logical" name="EVENONLYGW"> F  </i>
   <i type="int" name="NKREDLFX">     1</i>
   <i type="int" name="NKREDLFY">     1</i>
   <i type="int" name="NKREDLFZ">     1</i>
   <i type="int" name="MAXMEM">  2800</i>
   <i type="int" name="TELESCOPE">     0</i>
   <i type="int" name="NTAUPAR">    -1</i>
   <i type="int" name="NOMEGAPAR">    -1</i>
   <i name="DAMP_NEWTON">      0.80000001</i>
   <i name="LAMBDA">      1.00000000</i>
  </separator>
  <separator name="External order field" >
   <i name="OFIELD_KAPPA">      0.00000000</i>
   <v name="OFIELD_K">      0.00000000      0.00000000      0.00000000</v>
   <i name="OFIELD_Q6_NEAR">      0.00000000</i>
   <i name="OFIELD_Q6_FAR">      0.00000000</i>
   <i name="OFIELD_A">      0.00000000</i>
  </separator>
  <separator name="solvation model" >
   <i type="logical" name="LSOL"> F  </i>
  </separator>
 </parameters>
 <atominfo>
  <atoms>       1 </atoms>
  <types>       1 </types>
  <array name="atoms" >
   <dimension dim="1">ion</dimension>
   <field type="string">element</field>
   <field type="int">atomtype</field>
   <set>
    <rc><c>O </c><c>   1</c></rc>
   </set>
  </array>
  <array name="atomtypes" >
   <dimension dim="1">type</dimension>
   <field type="int">atomspertype</field>
   <field type="string">element</field>
   <field>mass</field>
   <field>valence</field>
   <field type="string">pseudopotential</field>
   <set>
    <rc><c>   1</c><c>O </c><c>     16.00000000</c><c>      6.00000000</c><c>  PAW O_GW 19Mar2012                    </c></rc>
   </set>
  </array>
 </atominfo>
 <structure name="initialpos" >
  <crystal>
   <varray name="basis" >
    <v>      14.50000000       0.00000000       0.00000000 </v>
    <v>       0.00000000      14.50000000       0.00000000 </v>
    <v>       0.00000000       0.00000000      14.50000000 </v>
   </varray>
   <i name="volume">   3048.62500000 </i>
   <varray name="rec_basis" >
    <v>       0.06896552       0.00000000       0.00000000 </v>
    <v>       0.00000000       0.06896552       0.00000000 </v>
    <v>       0.00000000       0.00000000       0.06896552 </v>
   </varray>
  </crystal>
  <varray name="positions" >
   <v>       0.00000000       0.00000000       0.00000000 </v>
  </varray>
 </structure>
 <calculation>
  <scstep>
   <time name="dav">    0.09    0.10</time>
   <time name="total">    0.14    0.17</time>
   <energy>
    <i name="alphaZ">      0.02241325 </i>
    <i name="ewald">    -50.71838898 </i>
    <i name="hartreedc">   -323.05729963 </i>
    <i name="XCdc">     24.43532410 </i>
    <i name="pawpsdc">    349.15150874 </i>
    <i name="pawaedc">   -348.34814589 </i>
    <i name="eentropy">     -0.02246988 </i>
    <i name="bandstr">    -39.48534589 </i>
    <i name="atom">    431.98751057 </i>
    <i name="e_fr_energy">     43.96510641 </i>
    <i name="e_wo_entrp">     43.98757629 </i>
    <i name="e_0_energy">     43.97634135 </i>
   </energy>
  </scstep>
  <scstep>
   <time name="dav">    0.08    0.08</time>
   <time name="total">    0.08    0.08</time>
   <energy>
    <i name="e_fr_energy">     15.63452842 </i>
    <i name="e_wo_entrp">     15.64416982 </i>
    <i name="e_0_energy">     15.63934912 </i>
   </energy>
  </scstep>
  <scstep>
   <time name="dav">    0.08    0.09</time>
   <time name="total">    0.08    0.09</time>
   <energy>
    <i name="e_fr_energy">      0.89796708 </i>
    <i name="e_wo_entrp">      0.89815928 </i>
    <i name="e_0_energy">      0.89806318 </i>
   </energy>
  </scstep>
  <scstep>
   <time name="dav">    0.06    0.06</time>
   <time name="total">    0.06    0.06</time>
   <energy>
    <i name="e_fr_energy">      0.09411471 </i>
    <i name="e_wo_entrp">      0.16091285 </i>
    <i name="e_0_energy">      0.12751378 </i>
   </energy>
  </scstep>
  <scstep>
   <time name="dav">    0.06    0.06</time>
   <time name="total">    0.20    0.21</time>
   <energy>
    <i name="e_fr_energy">      0.05591612 </i>
    <i name="e_wo_entrp">      0.13298225 </i>
    <i name="e_0_energy">      0.09444919 </i>
   </energy>
  </scstep>
  <scstep>
   <time name="dav">    0.06    0.06</time>
   <time name="total">    0.23    0.23</time>
   <energy>
    <i name="e_fr_energy">      0.05758186 </i>
    <i name="e_wo_entrp">      0.13469579 </i>
    <i name="e_0_energy">      0.09613883 </i>
   </energy>
  </scstep>
  <scstep>
   <time name="dav">    0.05    0.05</time>
   <time name="total">    0.21    0.22</time>
   <energy>
    <i name="e_fr_energy">      0.04708675 </i>
    <i name="e_wo_entrp">      0.12420013 </i>
    <i name="e_0_energy">      0.08564344 </i>
   </energy>
  </scstep>
  <scstep>
   <time name="dav">    0.07    0.07</time>
   <time name="total">    0.23    0.23</time>
   <energy>
    <i name="e_fr_energy">      0.04674360 </i>
    <i name="e_wo_entrp">      0.12385699 </i>
    <i name="e_0_energy">      0.08530030 </i>
   </energy>
  </scstep>
  <scstep>
   <time name="dav">    0.07    0.07</time>
   <time name="total">    0.24    0.24</time>
   <energy>
    <i name="e_fr_energy">      0.04674125 </i>
    <i name="e_wo_entrp">      0.12385466 </i>
    <i name="e_0_energy">      0.08529795 </i>
   </energy>
  </scstep>
  <scstep>
   <time name="dav">    0.07    0.07</time>
   <time name="total">    0.23    0.24</time>
   <energy>
    <i name="e_fr_energy">      0.04673938 </i>
    <i name="e_wo_entrp">      0.12385279 </i>
    <i name="e_0_energy">      0.08529609 </i>
   </energy>
  </scstep>
  <scstep>
   <time name="dav">    0.06    0.06</time>
   <time name="total">    0.23    0.23</time>
   <energy>
    <i name="e_fr_energy">      0.04673838 </i>
    <i name="e_wo_entrp">      0.12385178 </i>
    <i name="e_0_energy">      0.08529508 </i>
   </energy>
  </scstep>
  <scstep>
   <time name="dav">    0.05    0.05</time>
   <time name="total">    0.23    0.23</time>
   <energy>
    <i name="e_fr_energy">      0.04673494 </i>
    <i name="e_wo_entrp">      0.12384834 </i>
    <i name="e_0_energy">      0.08529164 </i>
   </energy>
  </scstep>
  <scstep>
   <time name="dav">    0.05    0.05</time>
   <time name="total">    0.23    0.23</time>
   <energy>
    <i name="e_fr_energy">      0.04673363 </i>
    <i name="e_wo_entrp">      0.12384704 </i>
    <i name="e_0_energy">      0.08529034 </i>
   </energy>
  </scstep>
  <scstep>
   <time name="dav">    0.06    0.06</time>
   <time name="total">    0.24    0.24</time>
   <energy>
    <i name="e_fr_energy">      0.04673278 </i>
    <i name="e_wo_entrp">      0.12384619 </i>
    <i name="e_0_energy">      0.08528948 </i>
   </energy>
  </scstep>
  <scstep>
   <time name="dav">    0.06    0.06</time>
   <time name="total">    0.25    0.25</time>
   <energy>
    <i name="e_fr_energy">      0.04673258 </i>
    <i name="e_wo_entrp">      0.12384599 </i>
    <i name="e_0_energy">      0.08528928 </i>
   </energy>
  </scstep>
  <scstep>
   <time name="dav">    0.05    0.05</time>
   <time name="total">    0.09    0.09</time>
   <energy>
    <i name="alphaZ">      0.02241325 </i>
    <i name="ewald">    -50.71838898 </i>
    <i name="hartreedc">   -322.40899473 </i>
    <i name="XCdc">     24.41573433 </i>
    <i name="pawpsdc">    316.05529386 </i>
    <i name="pawaedc">   -315.29227223 </i>
    <i name="eentropy">     -0.07711341 </i>
    <i name="bandstr">    -83.93745017 </i>
    <i name="atom">    431.98751057 </i>
    <i name="e_fr_energy">      0.04673250 </i>
    <i name="e_wo_entrp">      0.12384591 </i>
    <i name="e_0_energy">      0.08528920 </i>
   </energy>
  </scstep>
  <structure>
   <crystal>
    <varray name="basis" >
     <v>      14.50000000       0.00000000       0.00000000 </v>
     <v>       0.00000000      14.50000000       0.00000000 </v>
     <v>       0.00000000       0.00000000      14.50000000 </v>
    </varray>
    <i name="volume">   3048.62500000 </i>
    <varray name="rec_basis" >
     <v>       0.06896552       0.00000000       0.00000000 </v>
     <v>       0.00000000       0.06896552       0.00000000 </v>
     <v>       0.00000000       0.00000000       0.06896552 </v>
    </varray>
   </crystal>
   <varray name="positions" >
    <v>       0.00000000       0.00000000       0.00000000 </v>
   </varray>
  </structure>
  <varray name="forces" >
   <v>       0.00000000       0.00000000       0.00000000 </v>
  </varray>
  <varray name="stress" >
   <v>      -1.60529907       0.00000000       0.00000000 </v>
   <v>       0.00000000      -1.60529907       0.00000000 </v>
   <v>       0.00000000      -0.00000000      -1.60529907 </v>
  </varray>
  <energy>
   <i name="e_fr_energy">      0.04672830 </i>
   <i name="e_wo_entrp">      0.12384171 </i>
   <i name="e_0_energy">      0.08528501 </i>
  </energy>
  <time name="totalsc">    3.41    3.50</time>
  <eigenvalues>
   <array>
    <dimension dim="1">band</dimension>
    <dimension dim="2">kpoint</dimension>
    <dimension dim="3">spin</dimension>
    <field>eigene</field>
    <field>occ</field>
    <set>
     <set comment="spin 1">
      <set comment="kpoint 1">
       <r>  -24.0021    1.0000 </r>
       <r>   -8.9830    0.6636 </r>
       <r>   -8.9830    0.6636 </r>
       <r>   -8.9830    0.6636 </r>
       <r>   -0.2589    0.0000 </r>
       <r>    0.3008    0.0000 </r>
       <r>    0.5718    0.0000 </r>
      </set>
      <set comment="kpoint 2">
       <r>  -24.0022    1.0000 </r>
       <r>   -8.9844    0.6777 </r>
       <r>   -8.9844    0.6777 </r>
       <r>   -8.9827    0.6607 </r>
       <r>   -0.1886    0.0000 </r>
       <r>    0.0967    0.0000 </r>
       <r>    0.5016    0.0000 </r>
      </set>
      <set comment="kpoint 3">
       <r>  -24.0021    1.0000 </r>
       <r>   -8.9840    0.6738 </r>
       <r>   -8.9828    0.6614 </r>
       <r>   -8.9828    0.6614 </r>
       <r>   -0.1349    0.0000 </r>
       <r>    0.2490    0.0000 </r>
       <r>    0.2490    0.0000 </r>
      </set>
      <set comment="kpoint 4">
       <r>  -24.0020    1.0000 </r>
       <r>   -8.9824    0.6571 </r>
       <r>   -8.9824    0.6571 </r>
       <r>   -8.9824    0.6571 </r>
       <r>   -0.0922    0.0000 </r>
       <r>    0.3853    0.0000 </r>
       <r>    0.3854    0.0000 </r>
      </set>
     </set>
    </set>
   </array>
  </eigenvalues>
  <separator name="orbital magnetization" >
   <v name="MAGDIPOLOUT">      0.00000000      0.00000000      0.00000000</v>
  </separator>
  <dos>
   <i name="efermi">     -8.96806767 </i>
   <total>
    <array>
     <dimension dim="1">gridpoints</dimension>
     <dimension dim="2">spin</dimension>
     <field>energy</field>
     <field>total</field>
     <field>integrated</field>
     <set>
      <set comment="spin 1">
       <r>   -25.2309     0.0000     0.0000 </r>
       <r>   -25.1408     0.0000     0.0000 </r>
       <r>   -25.0507     0.0000     0.0000 </r>
       <r>   -24.9606     0.0000     0.0000 </r>
       <r>   -24.8705     0.0000     0.0000 </r>
       <r>   -24.7803     0.0000     0.0000 </r>
       <r>   -24.6902     0.0000     0.0000 </r>
       <r>   -24.6001     0.0000     0.0000 </r>
       <r>   -24.5100     0.0000     0.0000 </r>
       <r>   -24.4199     0.0000     0.0000 </r>
       <r>   -24.3298     0.0000     0.0000 </r>
       <r>   -24.2397     0.0000     0.0000 </r>
       <r>   -24.1496     0.0003     0.0000 </r>
       <r>   -24.0595     1.1590     0.1045 </r>
       <r>   -23.9694    17.0973     1.6450 </r>
       <r>   -23.8793     3.9341     1.9995 </r>
       <r>   -23.7892     0.0057     2.0000 </r>
       <r>   -23.6991     0.0000     2.0000 </r>
       <r>   -23.6090     0.0000     2.0000 </r>
       <r>   -23.5189     0.0000     2.0000 </r>
       <r>   -23.4288     0.0000     2.0000 </r>
       <r>   -23.3387     0.0000     2.0000 </r>
       <r>   -23.2486     0.0000     2.0000 </r>
       <r>   -23.1585     0.0000     2.0000 </r>
       <r>   -23.0684     0.0000     2.0000 </r>
       <r>   -22.9783     0.0000     2.0000 </r>
       <r>   -22.8881     0.0000     2.0000 </r>
       <r>   -22.7980     0.0000     2.0000 </r>
       <r>   -22.7079     0.0000     2.0000 </r>
       <r>   -22.6178     0.0000     2.0000 </r>
       <r>   -22.5277     0.0000     2.0000 </r>
       <r>   -22.4376     0.0000     2.0000 </r>
       <r>   -22.3475     0.0000     2.0000 </r>
       <r>   -22.2574     0.0000     2.0000 </r>
       <r>   -22.1673     0.0000     2.0000 </r>
       <r>   -22.0772     0.0000     2.0000 </r>
       <r>   -21.9871     0.0000     2.0000 </r>
       <r>   -21.8970     0.0000     2.0000 </r>
       <r>   -21.8069     0.0000     2.0000 </r>
       <r>   -21.7168     0.0000     2.0000 </r>
       <r>   -21.6267     0.0000     2.0000 </r>
       <r>   -21.5366     0.0000     2.0000 </r>
       <r>   -21.4465     0.0000     2.0000 </r>
       <r>   -21.3564     0.0000     2.0000 </r>
       <r>   -21.2663     0.0000     2.0000 </r>
       <r>   -21.1762     0.0000     2.0000 </r>
       <r>   -21.0861     0.0000     2.0000 </r>
       <r>   -20.9960     0.0000     2.0000 </r>
       <r>   -20.9058     0.0000     2.0000 </r>
       <r>   -20.8157     0.0000     2.0000 </r>
       <r>   -20.7256     0.0000     2.0000 </r>
       <r>   -20.6355     0.0000     2.0000 </r>
       <r>   -20.5454     0.0000     2.0000 </r>
       <r>   -20.4553     0.0000     2.0000 </r>
       <r>   -20.3652     0.0000     2.0000 </r>
       <r>   -20.2751     0.0000     2.0000 </r>
       <r>   -20.1850     0.0000     2.0000 </r>
       <r>   -20.0949     0.0000     2.0000 </r>
       <r>   -20.0048     0.0000     2.0000 </r>
       <r>   -19.9147     0.0000     2.0000 </r>
       <r>   -19.8246     0.0000     2.0000 </r>
       <r>   -19.7345     0.0000     2.0000 </r>
       <r>   -19.6444     0.0000     2.0000 </r>
       <r>   -19.5543     0.0000     2.0000 </r>
       <r>   -19.4642     0.0000     2.0000 </r>
       <r>   -19.3741     0.0000     2.0000 </r>
       <r>   -19.2840     0.0000     2.0000 </r>
       <r>   -19.1939     0.0000     2.0000 </r>
       <r>   -19.1038     0.0000     2.0000 </r>
       <r>   -19.0136     0.0000     2.0000 </r>
       <r>   -18.9235     0.0000     2.0000 </r>
       <r>   -18.8334     0.0000     2.0000 </r>
       <r>   -18.7433     0.0000     2.0000 </r>
       <r>   -18.6532     0.0000     2.0000 </r>
       <r>   -18.5631     0.0000     2.0000 </r>
       <r>   -18.4730     0.0000     2.0000 </r>
       <r>   -18.3829     0.0000     2.0000 </r>
       <r>   -18.2928     0.0000     2.0000 </r>
       <r>   -18.2027     0.0000     2.0000 </r>
       <r>   -18.1126     0.0000     2.0000 </r>
       <r>   -18.0225     0.0000     2.0000 </r>
       <r>   -17.9324     0.0000     2.0000 </r>
       <r>   -17.8423     0.0000     2.0000 </r>
       <r>   -17.7522     0.0000     2.0000 </r>
       <r>   -17.6621     0.0000     2.0000 </r>
       <r>   -17.5720     0.0000     2.0000 </r>
       <r>   -17.4819     0.0000     2.0000 </r>
       <r>   -17.3918     0.0000     2.0000 </r>
       <r>   -17.3017     0.0000     2.0000 </r>
       <r>   -17.2116     0.0000     2.0000 </r>
       <r>   -17.1214     0.0000     2.0000 </r>
       <r>   -17.0313     0.0000     2.0000 </r>
       <r>   -16.9412     0.0000     2.0000 </r>
       <r>   -16.8511     0.0000     2.0000 </r>
       <r>   -16.7610     0.0000     2.0000 </r>
       <r>   -16.6709     0.0000     2.0000 </r>
       <r>   -16.5808     0.0000     2.0000 </r>
       <r>   -16.4907     0.0000     2.0000 </r>
       <r>   -16.4006     0.0000     2.0000 </r>
       <r>   -16.3105     0.0000     2.0000 </r>
       <r>   -16.2204     0.0000     2.0000 </r>
       <r>   -16.1303     0.0000     2.0000 </r>
       <r>   -16.0402     0.0000     2.0000 </r>
       <r>   -15.9501     0.0000     2.0000 </r>
       <r>   -15.8600     0.0000     2.0000 </r>
       <r>   -15.7699     0.0000     2.0000 </r>
       <r>   -15.6798     0.0000     2.0000 </r>
       <r>   -15.5897     0.0000     2.0000 </r>
       <r>   -15.4996     0.0000     2.0000 </r>
       <r>   -15.4095     0.0000     2.0000 </r>
       <r>   -15.3194     0.0000     2.0000 </r>
       <r>   -15.2292     0.0000     2.0000 </r>
       <r>   -15.1391     0.0000     2.0000 </r>
       <r>   -15.0490     0.0000     2.0000 </r>
       <r>   -14.9589     0.0000     2.0000 </r>
       <r>   -14.8688     0.0000     2.0000 </r>
       <r>   -14.7787     0.0000     2.0000 </r>
       <r>   -14.6886     0.0000     2.0000 </r>
       <r>   -14.5985     0.0000     2.0000 </r>
       <r>   -14.5084     0.0000     2.0000 </r>
       <r>   -14.4183     0.0000     2.0000 </r>
       <r>   -14.3282     0.0000     2.0000 </r>
       <r>   -14.2381     0.0000     2.0000 </r>
       <r>   -14.1480     0.0000     2.0000 </r>
       <r>   -14.0579     0.0000     2.0000 </r>
       <r>   -13.9678     0.0000     2.0000 </r>
       <r>   -13.8777     0.0000     2.0000 </r>
       <r>   -13.7876     0.0000     2.0000 </r>
       <r>   -13.6975     0.0000     2.0000 </r>
       <r>   -13.6074     0.0000     2.0000 </r>
       <r>   -13.5173     0.0000     2.0000 </r>
       <r>   -13.4272     0.0000     2.0000 </r>
       <r>   -13.3371     0.0000     2.0000 </r>
       <r>   -13.2469     0.0000     2.0000 </r>
       <r>   -13.1568     0.0000     2.0000 </r>
       <r>   -13.0667     0.0000     2.0000 </r>
       <r>   -12.9766     0.0000     2.0000 </r>
       <r>   -12.8865     0.0000     2.0000 </r>
       <r>   -12.7964     0.0000     2.0000 </r>
       <r>   -12.7063     0.0000     2.0000 </r>
       <r>   -12.6162     0.0000     2.0000 </r>
       <r>   -12.5261     0.0000     2.0000 </r>
       <r>   -12.4360     0.0000     2.0000 </r>
       <r>   -12.3459     0.0000     2.0000 </r>
       <r>   -12.2558     0.0000     2.0000 </r>
       <r>   -12.1657     0.0000     2.0000 </r>
       <r>   -12.0756     0.0000     2.0000 </r>
       <r>   -11.9855     0.0000     2.0000 </r>
       <r>   -11.8954     0.0000     2.0000 </r>
       <r>   -11.8053     0.0000     2.0000 </r>
       <r>   -11.7152     0.0000     2.0000 </r>
       <r>   -11.6251     0.0000     2.0000 </r>
       <r>   -11.5350     0.0000     2.0000 </r>
       <r>   -11.4449     0.0000     2.0000 </r>
       <r>   -11.3547     0.0000     2.0000 </r>
       <r>   -11.2646     0.0000     2.0000 </r>
       <r>   -11.1745     0.0000     2.0000 </r>
       <r>   -11.0844     0.0000     2.0000 </r>
       <r>   -10.9943     0.0000     2.0000 </r>
       <r>   -10.9042     0.0000     2.0000 </r>
       <r>   -10.8141     0.0000     2.0000 </r>
       <r>   -10.7240     0.0000     2.0000 </r>
       <r>   -10.6339     0.0000     2.0000 </r>
       <r>   -10.5438     0.0000     2.0000 </r>
       <r>   -10.4537     0.0000     2.0000 </r>
       <r>   -10.3636     0.0000     2.0000 </r>
       <r>   -10.2735     0.0000     2.0000 </r>
       <r>   -10.1834     0.0000     2.0000 </r>
       <r>   -10.0933     0.0000     2.0000 </r>
       <r>   -10.0032     0.0000     2.0000 </r>
       <r>    -9.9131     0.0000     2.0000 </r>
       <r>    -9.8230     0.0000     2.0000 </r>
       <r>    -9.7329     0.0000     2.0000 </r>
       <r>    -9.6428     0.0000     2.0000 </r>
       <r>    -9.5527     0.0000     2.0000 </r>
       <r>    -9.4625     0.0000     2.0000 </r>
       <r>    -9.3724     0.0000     2.0000 </r>
       <r>    -9.2823     0.0000     2.0000 </r>
       <r>    -9.1922     0.0000     2.0000 </r>
       <r>    -9.1021     0.0259     2.0023 </r>
       <r>    -9.0120    13.8458     3.2499 </r>
       <r>    -8.9219    49.9667     7.7521 </r>
       <r>    -8.8318     2.7502     7.9999 </r>
       <r>    -8.7417     0.0006     8.0000 </r>
       <r>    -8.6516     0.0000     8.0000 </r>
       <r>    -8.5615     0.0000     8.0000 </r>
       <r>    -8.4714     0.0000     8.0000 </r>
       <r>    -8.3813     0.0000     8.0000 </r>
       <r>    -8.2912     0.0000     8.0000 </r>
       <r>    -8.2011     0.0000     8.0000 </r>
       <r>    -8.1110     0.0000     8.0000 </r>
       <r>    -8.0209     0.0000     8.0000 </r>
       <r>    -7.9308     0.0000     8.0000 </r>
       <r>    -7.8407     0.0000     8.0000 </r>
       <r>    -7.7506     0.0000     8.0000 </r>
       <r>    -7.6605     0.0000     8.0000 </r>
       <r>    -7.5703     0.0000     8.0000 </r>
       <r>    -7.4802     0.0000     8.0000 </r>
       <r>    -7.3901     0.0000     8.0000 </r>
       <r>    -7.3000     0.0000     8.0000 </r>
       <r>    -7.2099     0.0000     8.0000 </r>
       <r>    -7.1198     0.0000     8.0000 </r>
       <r>    -7.0297     0.0000     8.0000 </r>
       <r>    -6.9396     0.0000     8.0000 </r>
       <r>    -6.8495     0.0000     8.0000 </r>
       <r>    -6.7594     0.0000     8.0000 </r>
       <r>    -6.6693     0.0000     8.0000 </r>
       <r>    -6.5792     0.0000     8.0000 </r>
       <r>    -6.4891     0.0000     8.0000 </r>
       <r>    -6.3990     0.0000     8.0000 </r>
       <r>    -6.3089     0.0000     8.0000 </r>
       <r>    -6.2188     0.0000     8.0000 </r>
       <r>    -6.1287     0.0000     8.0000 </r>
       <r>    -6.0386     0.0000     8.0000 </r>
       <r>    -5.9485     0.0000     8.0000 </r>
       <r>    -5.8584     0.0000     8.0000 </r>
       <r>    -5.7683     0.0000     8.0000 </r>
       <r>    -5.6782     0.0000     8.0000 </r>
       <r>    -5.5880     0.0000     8.0000 </r>
       <r>    -5.4979     0.0000     8.0000 </r>
       <r>    -5.4078     0.0000     8.0000 </r>
       <r>    -5.3177     0.0000     8.0000 </r>
       <r>    -5.2276     0.0000     8.0000 </r>
       <r>    -5.1375     0.0000     8.0000 </r>
       <r>    -5.0474     0.0000     8.0000 </r>
       <r>    -4.9573     0.0000     8.0000 </r>
       <r>    -4.8672     0.0000     8.0000 </r>
       <r>    -4.7771     0.0000     8.0000 </r>
       <r>    -4.6870     0.0000     8.0000 </r>
       <r>    -4.5969     0.0000     8.0000 </r>
       <r>    -4.5068     0.0000     8.0000 </r>
       <r>    -4.4167     0.0000     8.0000 </r>
       <r>    -4.3266     0.0000     8.0000 </r>
       <r>    -4.2365     0.0000     8.0000 </r>
       <r>    -4.1464     0.0000     8.0000 </r>
       <r>    -4.0563     0.0000     8.0000 </r>
       <r>    -3.9662     0.0000     8.0000 </r>
       <r>    -3.8761     0.0000     8.0000 </r>
       <r>    -3.7860     0.0000     8.0000 </r>
       <r>    -3.6958     0.0000     8.0000 </r>
       <r>    -3.6057     0.0000     8.0000 </r>
       <r>    -3.5156     0.0000     8.0000 </r>
       <r>    -3.4255     0.0000     8.0000 </r>
       <r>    -3.3354     0.0000     8.0000 </r>
       <r>    -3.2453     0.0000     8.0000 </r>
       <r>    -3.1552     0.0000     8.0000 </r>
       <r>    -3.0651     0.0000     8.0000 </r>
       <r>    -2.9750     0.0000     8.0000 </r>
       <r>    -2.8849     0.0000     8.0000 </r>
       <r>    -2.7948     0.0000     8.0000 </r>
       <r>    -2.7047     0.0000     8.0000 </r>
       <r>    -2.6146     0.0000     8.0000 </r>
       <r>    -2.5245     0.0000     8.0000 </r>
       <r>    -2.4344     0.0000     8.0000 </r>
       <r>    -2.3443     0.0000     8.0000 </r>
       <r>    -2.2542     0.0000     8.0000 </r>
       <r>    -2.1641     0.0000     8.0000 </r>
       <r>    -2.0740     0.0000     8.0000 </r>
       <r>    -1.9839     0.0000     8.0000 </r>
       <r>    -1.8938     0.0000     8.0000 </r>
       <r>    -1.8036     0.0000     8.0000 </r>
       <r>    -1.7135     0.0000     8.0000 </r>
       <r>    -1.6234     0.0000     8.0000 </r>
       <r>    -1.5333     0.0000     8.0000 </r>
       <r>    -1.4432     0.0000     8.0000 </r>
       <r>    -1.3531     0.0000     8.0000 </r>
       <r>    -1.2630     0.0000     8.0000 </r>
       <r>    -1.1729     0.0000     8.0000 </r>
       <r>    -1.0828     0.0000     8.0000 </r>
       <r>    -0.9927     0.0000     8.0000 </r>
       <r>    -0.9026     0.0000     8.0000 </r>
       <r>    -0.8125     0.0000     8.0000 </r>
       <r>    -0.7224     0.0000     8.0000 </r>
       <r>    -0.6323     0.0000     8.0000 </r>
       <r>    -0.5422     0.0000     8.0000 </r>
       <r>    -0.4521     0.0000     8.0000 </r>
       <r>    -0.3620     0.0049     8.0004 </r>
       <r>    -0.2719     1.0632     8.0962 </r>
       <r>    -0.1818     7.2517     8.7497 </r>
       <r>    -0.0917    11.5611     9.7914 </r>
       <r>    -0.0016     2.3230    10.0007 </r>
       <r>     0.0886     3.3932    10.3064 </r>
       <r>     0.1787     5.2268    10.7774 </r>
       <r>     0.2688    12.0571    11.8638 </r>
       <r>     0.3589     8.1648    12.5995 </r>
       <r>     0.4490     4.8153    13.0334 </r>
       <r>     0.5391     7.2423    13.6859 </r>
       <r>     0.6292     3.3390    13.9868 </r>
       <r>     0.7193     0.1467    14.0000 </r>
       <r>     0.8094     0.0000    14.0000 </r>
       <r>     0.8995     0.0000    14.0000 </r>
       <r>     0.9896     0.0000    14.0000 </r>
       <r>     1.0797     0.0000    14.0000 </r>
       <r>     1.1698     0.0000    14.0000 </r>
       <r>     1.2599     0.0000    14.0000 </r>
       <r>     1.3500     0.0000    14.0000 </r>
       <r>     1.4401     0.0000    14.0000 </r>
       <r>     1.5302     0.0000    14.0000 </r>
       <r>     1.6203     0.0000    14.0000 </r>
       <r>     1.7104     0.0000    14.0000 </r>
       <r>     1.8005     0.0000    14.0000 </r>
      </set>
     </set>
    </array>
   </total>
  </dos>
 </calculation>
 <structure name="finalpos" >
  <crystal>
   <varray name="basis" >
    <v>      14.50000000       0.00000000       0.00000000 </v>
    <v>       0.00000000      14.50000000       0.00000000 </v>
    <v>       0.00000000       0.00000000      14.50000000 </v>
   </varray>
   <i name="volume">   3048.62500000 </i>
   <varray name="rec_basis" >
    <v>       0.06896552       0.00000000       0.00000000 </v>
    <v>       0.00000000       0.06896552       0.00000000 </v>
    <v>       0.00000000       0.00000000       0.06896552 </v>
   </varray>
  </crystal>
  <varray name="positions" >
   <v>       0.00000000       0.00000000       0.00000000 </v>
  </varray>
 </structure>
</modeling>
