         259
 Energy:  -1429.7356981999999      en  -1320.9430081999999      edisp  -108.79268999999999     
 X   0.00000000       0.00000000       0.00000000    
 X   14.5000000       0.00000000       0.00000000    
 X   0.00000000       14.5000000       0.00000000    
 X   0.00000000       0.00000000       14.5000000    
 X   14.5000000       14.5000000       0.00000000    
 X   14.5000000       0.00000000       14.5000000    
 X   0.00000000       14.5000000       14.5000000    
 X   14.5000000       14.5000000       14.5000000    
 Ni   0.00000000       0.00000000       0.00000000    
 Ni   0.00000000       0.00000000       2.90000010    
 Ni   0.00000000       0.00000000       5.80000019    
 Ni   0.00000000       0.00000000       8.69999981    
 Ni   0.00000000       0.00000000       11.6000004    
 Ni   0.00000000       2.90000010       0.00000000    
 Ni   0.00000000       2.90000010       2.90000010    
 Ni   0.00000000       2.90000010       5.80000019    
 Ni   0.00000000       2.90000010       8.69999981    
 Ni   0.00000000       2.90000010       11.6000004    
 Ni   0.00000000       5.80000019       0.00000000    
 Ni   0.00000000       5.80000019       2.90000010    
 Ni   0.00000000       5.80000019       5.80000019    
 Ni   0.00000000       5.80000019       8.69999981    
 Ni   0.00000000       5.80000019       11.6000004    
 Ni   0.00000000       8.69999981       0.00000000    
 Ni   0.00000000       8.69999981       2.90000010    
 Ni   0.00000000       8.69999981       5.80000019    
 Ni   0.00000000       8.69999981       8.69999981    
 Ni   0.00000000       8.69999981       11.6000004    
 Ni   0.00000000       11.6000004       0.00000000    
 Ni   0.00000000       11.6000004       2.90000010    
 Ni   0.00000000       11.6000004       5.80000019    
 Ni   0.00000000       11.6000004       8.69999981    
 Ni   0.00000000       11.6000004       11.6000004    
 Ni   2.90000010       0.00000000       0.00000000    
 Ni   2.90000010       0.00000000       2.90000010    
 Ni   2.90000010       0.00000000       5.80000019    
 Ni   2.90000010       0.00000000       8.69999981    
 Ni   2.90000010       0.00000000       11.6000004    
 Ni   2.90000010       2.90000010       0.00000000    
 Ni   2.90000010       2.90000010       2.90000010    
 Ni   2.90000010       2.90000010       5.80000019    
 Ni   2.90000010       2.90000010       8.69999981    
 Ni   2.90000010       2.90000010       11.6000004    
 Ni   2.90000010       5.80000019       0.00000000    
 Ni   2.90000010       5.80000019       2.90000010    
 Ni   2.90000010       5.80000019       5.80000019    
 Ni   2.90000010       5.80000019       8.69999981    
 Ni   2.90000010       5.80000019       11.6000004    
 Ni   2.90000010       8.69999981       0.00000000    
 Ni   2.90000010       8.69999981       2.90000010    
 Ni   2.90000010       8.69999981       5.80000019    
 Ni   2.90000010       8.69999981       8.69999981    
 Ni   2.90000010       8.69999981       11.6000004    
 Ni   2.90000010       11.6000004       0.00000000    
 Ni   2.90000010       11.6000004       2.90000010    
 Ni   2.90000010       11.6000004       5.80000019    
 Ni   2.90000010       11.6000004       8.69999981    
 Ni   2.90000010       11.6000004       11.6000004    
 Ni   5.80000019       0.00000000       0.00000000    
 Ni   5.80000019       0.00000000       2.90000010    
 Ni   5.80000019       0.00000000       5.80000019    
 Ni   5.80000019       0.00000000       8.69999981    
 Ni   5.80000019       0.00000000       11.6000004    
 Ni   5.80000019       2.90000010       0.00000000    
 Ni   5.80000019       2.90000010       2.90000010    
 Ni   5.80000019       2.90000010       5.80000019    
 Ni   5.80000019       2.90000010       8.69999981    
 Ni   5.80000019       2.90000010       11.6000004    
 Ni   5.80000019       5.80000019       0.00000000    
 Ni   5.80000019       5.80000019       2.90000010    
 Ni   5.80000019       5.80000019       5.80000019    
 Ni   5.80000019       5.80000019       8.69999981    
 Ni   5.80000019       5.80000019       11.6000004    
 Ni   5.80000019       8.69999981       0.00000000    
 Ni   5.80000019       8.69999981       2.90000010    
 Ni   5.80000019       8.69999981       5.80000019    
 Ni   5.80000019       8.69999981       8.69999981    
 Ni   5.80000019       8.69999981       11.6000004    
 Ni   5.80000019       11.6000004       0.00000000    
 Ni   5.80000019       11.6000004       2.90000010    
 Ni   5.80000019       11.6000004       5.80000019    
 Ni   5.80000019       11.6000004       8.69999981    
 Ni   5.80000019       11.6000004       11.6000004    
 Ni   8.69999981       0.00000000       0.00000000    
 Ni   8.69999981       0.00000000       2.90000010    
 Ni   8.69999981       0.00000000       5.80000019    
 Ni   8.69999981       0.00000000       8.69999981    
 Ni   8.69999981       0.00000000       11.6000004    
 Ni   8.69999981       2.90000010       0.00000000    
 Ni   8.69999981       2.90000010       2.90000010    
 Ni   8.69999981       2.90000010       5.80000019    
 Ni   8.69999981       2.90000010       8.69999981    
 Ni   8.69999981       2.90000010       11.6000004    
 Ni   8.69999981       5.80000019       0.00000000    
 Ni   8.69999981       5.80000019       2.90000010    
 Ni   8.69999981       5.80000019       5.80000019    
 Ni   8.69999981       5.80000019       8.69999981    
 Ni   8.69999981       5.80000019       11.6000004    
 Ni   8.69999981       8.69999981       0.00000000    
 Ni   8.69999981       8.69999981       2.90000010    
 Ni   8.69999981       8.69999981       5.80000019    
 Ni   8.69999981       8.69999981       8.69999981    
 Ni   8.69999981       8.69999981       11.6000004    
 Ni   8.69999981       11.6000004       0.00000000    
 Ni   8.69999981       11.6000004       2.90000010    
 Ni   8.69999981       11.6000004       5.80000019    
 Ni   8.69999981       11.6000004       8.69999981    
 Ni   8.69999981       11.6000004       11.6000004    
 Ni   11.6000004       0.00000000       0.00000000    
 Ni   11.6000004       0.00000000       2.90000010    
 Ni   11.6000004       0.00000000       5.80000019    
 Ni   11.6000004       0.00000000       8.69999981    
 Ni   11.6000004       0.00000000       11.6000004    
 Ni   11.6000004       2.90000010       0.00000000    
 Ni   11.6000004       2.90000010       2.90000010    
 Ni   11.6000004       2.90000010       5.80000019    
 Ni   11.6000004       2.90000010       8.69999981    
 Ni   11.6000004       2.90000010       11.6000004    
 Ni   11.6000004       5.80000019       0.00000000    
 Ni   11.6000004       5.80000019       2.90000010    
 Ni   11.6000004       5.80000019       5.80000019    
 Ni   11.6000004       5.80000019       8.69999981    
 Ni   11.6000004       5.80000019       11.6000004    
 Ni   11.6000004       8.69999981       0.00000000    
 Ni   11.6000004       8.69999981       2.90000010    
 Ni   11.6000004       8.69999981       5.80000019    
 Ni   11.6000004       8.69999981       8.69999981    
 Ni   11.6000004       8.69999981       11.6000004    
 Ni   11.6000004       11.6000004       0.00000000    
 Ni   11.6000004       11.6000004       2.90000010    
 Ni   11.6000004       11.6000004       5.80000019    
 Ni   11.6000004       11.6000004       8.69999981    
 Ni   11.6000004       11.6000004       11.6000004    
 Al   1.45000005       1.45000005       1.45000005    
 Al   1.45000005       1.45000005       4.34999990    
 Al   1.45000005       1.45000005       7.25000000    
 Al   1.45000005       1.45000005       10.1499996    
 Al   1.45000005       1.45000005       13.0500002    
 Al   1.45000005       4.34999990       1.45000005    
 Al   1.45000005       4.34999990       4.34999990    
 Al   1.45000005       4.34999990       7.25000000    
 Al   1.45000005       4.34999990       10.1499996    
 Al   1.45000005       4.34999990       13.0500002    
 Al   1.45000005       7.25000000       1.45000005    
 Al   1.45000005       7.25000000       4.34999990    
 Al   1.45000005       7.25000000       7.25000000    
 Al   1.45000005       7.25000000       10.1499996    
 Al   1.45000005       7.25000000       13.0500002    
 Al   1.45000005       10.1499996       1.45000005    
 Al   1.45000005       10.1499996       4.34999990    
 Al   1.45000005       10.1499996       7.25000000    
 Al   1.45000005       10.1499996       10.1499996    
 Al   1.45000005       10.1499996       13.0500002    
 Al   1.45000005       13.0500002       1.45000005    
 Al   1.45000005       13.0500002       4.34999990    
 Al   1.45000005       13.0500002       7.25000000    
 Al   1.45000005       13.0500002       10.1499996    
 Al   1.45000005       13.0500002       13.0500002    
 Al   4.34999990       1.45000005       1.45000005    
 Al   4.34999990       1.45000005       4.34999990    
 Al   4.34999990       1.45000005       7.25000000    
 Al   4.34999990       1.45000005       10.1499996    
 Al   4.34999990       1.45000005       13.0500002    
 Al   4.34999990       4.34999990       1.45000005    
 Al   4.34999990       4.34999990       4.34999990    
 Al   4.34999990       4.34999990       7.25000000    
 Al   4.34999990       4.34999990       10.1499996    
 Al   4.34999990       4.34999990       13.0500002    
 Al   4.34999990       7.25000000       1.45000005    
 Al   4.34999990       7.25000000       4.34999990    
 Al   4.34999990       7.25000000       7.25000000    
 Al   4.34999990       7.25000000       10.1499996    
 Al   4.34999990       7.25000000       13.0500002    
 Al   4.34999990       10.1499996       1.45000005    
 Al   4.34999990       10.1499996       4.34999990    
 Al   4.34999990       10.1499996       7.25000000    
 Al   4.34999990       10.1499996       10.1499996    
 Al   4.34999990       10.1499996       13.0500002    
 Al   4.34999990       13.0500002       1.45000005    
 Al   4.34999990       13.0500002       4.34999990    
 Al   4.34999990       13.0500002       7.25000000    
 Al   4.34999990       13.0500002       10.1499996    
 Al   4.34999990       13.0500002       13.0500002    
 Al   7.25000000       1.45000005       1.45000005    
 Al   7.25000000       1.45000005       4.34999990    
 Al   7.25000000       1.45000005       7.25000000    
 Al   7.25000000       1.45000005       10.1499996    
 Al   7.25000000       1.45000005       13.0500002    
 Al   7.25000000       4.34999990       1.45000005    
 Al   7.25000000       4.34999990       4.34999990    
 Al   7.25000000       4.34999990       7.25000000    
 Al   7.25000000       4.34999990       10.1499996    
 Al   7.25000000       4.34999990       13.0500002    
 Al   7.25000000       7.25000000       1.45000005    
 Al   7.25000000       7.25000000       4.34999990    
 Al   7.25000000       7.25000000       7.25000000    
 Al   7.25000000       7.25000000       10.1499996    
 Al   7.25000000       7.25000000       13.0500002    
 Al   7.25000000       10.1499996       1.45000005    
 Al   7.25000000       10.1499996       4.34999990    
 Al   7.25000000       10.1499996       7.25000000    
 Al   7.25000000       10.1499996       10.1499996    
 Al   7.25000000       10.1499996       13.0500002    
 Al   7.25000000       13.0500002       1.45000005    
 Al   7.25000000       13.0500002       4.34999990    
 Al   7.25000000       13.0500002       7.25000000    
 Al   7.25000000       13.0500002       10.1499996    
 Al   7.25000000       13.0500002       13.0500002    
 Al   10.1499996       1.45000005       1.45000005    
 Al   10.1499996       1.45000005       4.34999990    
 Al   10.1499996       1.45000005       7.25000000    
 Al   10.1499996       1.45000005       10.1499996    
 Al   10.1499996       1.45000005       13.0500002    
 Al   10.1499996       4.34999990       1.45000005    
 Al   10.1499996       4.34999990       4.34999990    
 Al   10.1499996       4.34999990       7.25000000    
 Al   10.1499996       4.34999990       10.1499996    
 Al   10.1499996       4.34999990       13.0500002    
 Al   10.1499996       7.25000000       1.45000005    
 Al   10.1499996       7.25000000       4.34999990    
 Al   10.1499996       7.25000000       7.25000000    
 Al   10.1499996       7.25000000       10.1499996    
 Al   10.1499996       7.25000000       13.0500002    
 Al   10.1499996       10.1499996       1.45000005    
 Al   10.1499996       10.1499996       4.34999990    
 Al   10.1499996       10.1499996       7.25000000    
 Al   10.1499996       10.1499996       10.1499996    
 Al   10.1499996       10.1499996       13.0500002    
 Al   10.1499996       13.0500002       1.45000005    
 Al   10.1499996       13.0500002       4.34999990    
 Al   10.1499996       13.0500002       7.25000000    
 Al   10.1499996       13.0500002       10.1499996    
 Al   10.1499996       13.0500002       13.0500002    
 Al   13.0500002       1.45000005       1.45000005    
 Al   13.0500002       1.45000005       4.34999990    
 Al   13.0500002       1.45000005       7.25000000    
 Al   13.0500002       1.45000005       10.1499996    
 Al   13.0500002       1.45000005       13.0500002    
 Al   13.0500002       4.34999990       1.45000005    
 Al   13.0500002       4.34999990       4.34999990    
 Al   13.0500002       4.34999990       7.25000000    
 Al   13.0500002       4.34999990       10.1499996    
 Al   13.0500002       4.34999990       13.0500002    
 Al   13.0500002       7.25000000       1.45000005    
 Al   13.0500002       7.25000000       4.34999990    
 Al   13.0500002       7.25000000       7.25000000    
 Al   13.0500002       7.25000000       10.1499996    
 Al   13.0500002       7.25000000       13.0500002    
 Al   13.0500002       10.1499996       1.45000005    
 Al   13.0500002       10.1499996       4.34999990    
 Al   13.0500002       10.1499996       7.25000000    
 Al   13.0500002       10.1499996       10.1499996    
 Al   13.0500002       10.1499996       13.0500002    
 Al   13.0500002       13.0500002       1.45000005    
 Al   13.0500002       13.0500002       4.34999990    
 Al   13.0500002       13.0500002       7.25000000    
 Al   13.0500002       13.0500002       10.1499996    
 Al   13.0500002       13.0500002       13.0500002    
 O    1.45000005       1.45000005       0.00000000    
         259
 Energy:  -1433.9566467000000      en  -1325.1637166999999      edisp  -108.79293000000000     
 X   0.00000000       0.00000000       0.00000000    
 X   14.5000000       0.00000000       0.00000000    
 X   0.00000000       14.5000000       0.00000000    
 X   0.00000000       0.00000000       14.5000000    
 X   14.5000000       14.5000000       0.00000000    
 X   14.5000000       0.00000000       14.5000000    
 X   0.00000000       14.5000000       14.5000000    
 X   14.5000000       14.5000000       14.5000000    
 Ni  -3.11099999E-02  -3.11099999E-02   0.00000000    
 Ni   1.10999995E-03   1.10999995E-03   2.89652991    
 Ni   9.99999975E-06   9.99999975E-06   5.79924011    
 Ni   9.99999975E-06   9.99999975E-06   8.70075989    
 Ni   1.10999995E-03   1.10999995E-03   11.6034698    
 Ni  -3.11099999E-02   2.93110991       0.00000000    
 Ni   1.10999995E-03   2.89889002       2.89652991    
 Ni   9.99999975E-06   2.89999008       5.79924011    
 Ni   9.99999975E-06   2.89999008       8.70075989    
 Ni   1.10999995E-03   2.89889002       11.6034698    
 Ni   4.69999999E-04   5.80002022       0.00000000    
 Ni  -1.30000000E-04   5.79994011       2.89994001    
 Ni   1.99999995E-05   5.79986000       5.80009985    
 Ni   1.99999995E-05   5.79986000       8.69989967    
 Ni  -1.30000000E-04   5.79994011       11.6000605    
 Ni   1.30000000E-04   8.69999981       0.00000000    
 Ni  -2.99999992E-05   8.69999981       2.89998007    
 Ni   1.30000000E-04   8.69999981       5.79999018    
 Ni   1.30000000E-04   8.69999981       8.70001030    
 Ni  -2.99999992E-05   8.69999981       11.6000204    
 Ni   4.69999999E-04   11.5999804       0.00000000    
 Ni  -1.30000000E-04   11.6000605       2.89994001    
 Ni   1.99999995E-05   11.6001396       5.80009985    
 Ni   1.99999995E-05   11.6001396       8.69989967    
 Ni  -1.30000000E-04   11.6000605       11.6000605    
 Ni   2.93110991      -3.11099999E-02   0.00000000    
 Ni   2.89889002       1.10999995E-03   2.89652991    
 Ni   2.89999008       9.99999975E-06   5.79924011    
 Ni   2.89999008       9.99999975E-06   8.70075989    
 Ni   2.89889002       1.10999995E-03   11.6034698    
 Ni   2.93110991       2.93110991       0.00000000    
 Ni   2.89889002       2.89889002       2.89652991    
 Ni   2.89999008       2.89999008       5.79924011    
 Ni   2.89999008       2.89999008       8.70075989    
 Ni   2.89889002       2.89889002       11.6034698    
 Ni   2.89952993       5.80002022       0.00000000    
 Ni   2.90013003       5.79994011       2.89994001    
 Ni   2.89998007       5.79986000       5.80009985    
 Ni   2.89998007       5.79986000       8.69989967    
 Ni   2.90013003       5.79994011       11.6000605    
 Ni   2.89986992       8.69999981       0.00000000    
 Ni   2.90002990       8.69999981       2.89998007    
 Ni   2.89986992       8.69999981       5.79999018    
 Ni   2.89986992       8.69999981       8.70001030    
 Ni   2.90002990       8.69999981       11.6000204    
 Ni   2.89952993       11.5999804       0.00000000    
 Ni   2.90013003       11.6000605       2.89994001    
 Ni   2.89998007       11.6001396       5.80009985    
 Ni   2.89998007       11.6001396       8.69989967    
 Ni   2.90013003       11.6000605       11.6000605    
 Ni   5.80002022       4.69999999E-04   0.00000000    
 Ni   5.79994011      -1.30000000E-04   2.89994001    
 Ni   5.79986000       1.99999995E-05   5.80009985    
 Ni   5.79986000       1.99999995E-05   8.69989967    
 Ni   5.79994011      -1.30000000E-04   11.6000605    
 Ni   5.80002022       2.89952993       0.00000000    
 Ni   5.79994011       2.90013003       2.89994001    
 Ni   5.79986000       2.89998007       5.80009985    
 Ni   5.79986000       2.89998007       8.69989967    
 Ni   5.79994011       2.90013003       11.6000605    
 Ni   5.79966021       5.79966021       0.00000000    
 Ni   5.80007982       5.80007982       2.90017009    
 Ni   5.79997015       5.79997015       5.79979992    
 Ni   5.79997015       5.79997015       8.70020008    
 Ni   5.80007982       5.80007982       11.5998297    
 Ni   5.79977989       8.69999981       0.00000000    
 Ni   5.80005980       8.69999981       2.89995003    
 Ni   5.79980993       8.69999981       5.80004978    
 Ni   5.79980993       8.69999981       8.69995022    
 Ni   5.80005980       8.69999981       11.6000500    
 Ni   5.79966021       11.6003399       0.00000000    
 Ni   5.80007982       11.5999203       2.90017009    
 Ni   5.79997015       11.6000299       5.79979992    
 Ni   5.79997015       11.6000299       8.70020008    
 Ni   5.80007982       11.5999203       11.5998297    
 Ni   8.69999981       1.30000000E-04   0.00000000    
 Ni   8.69999981      -2.99999992E-05   2.89998007    
 Ni   8.69999981       1.30000000E-04   5.79999018    
 Ni   8.69999981       1.30000000E-04   8.70001030    
 Ni   8.69999981      -2.99999992E-05   11.6000204    
 Ni   8.69999981       2.89986992       0.00000000    
 Ni   8.69999981       2.90002990       2.89998007    
 Ni   8.69999981       2.89986992       5.79999018    
 Ni   8.69999981       2.89986992       8.70001030    
 Ni   8.69999981       2.90002990       11.6000204    
 Ni   8.69999981       5.79977989       0.00000000    
 Ni   8.69999981       5.80005980       2.89995003    
 Ni   8.69999981       5.79980993       5.80004978    
 Ni   8.69999981       5.79980993       8.69995022    
 Ni   8.69999981       5.80005980       11.6000500    
 Ni   8.69999981       8.69999981       0.00000000    
 Ni   8.69999981       8.69999981       2.89994001    
 Ni   8.69999981       8.69999981       5.79972982    
 Ni   8.69999981       8.69999981       8.70026970    
 Ni   8.69999981       8.69999981       11.6000605    
 Ni   8.69999981       11.6002197       0.00000000    
 Ni   8.69999981       11.5999403       2.89995003    
 Ni   8.69999981       11.6001902       5.80004978    
 Ni   8.69999981       11.6001902       8.69995022    
 Ni   8.69999981       11.5999403       11.6000500    
 Ni   11.5999804       4.69999999E-04   0.00000000    
 Ni   11.6000605      -1.30000000E-04   2.89994001    
 Ni   11.6001396       1.99999995E-05   5.80009985    
 Ni   11.6001396       1.99999995E-05   8.69989967    
 Ni   11.6000605      -1.30000000E-04   11.6000605    
 Ni   11.5999804       2.89952993       0.00000000    
 Ni   11.6000605       2.90013003       2.89994001    
 Ni   11.6001396       2.89998007       5.80009985    
 Ni   11.6001396       2.89998007       8.69989967    
 Ni   11.6000605       2.90013003       11.6000605    
 Ni   11.6003399       5.79966021       0.00000000    
 Ni   11.5999203       5.80007982       2.90017009    
 Ni   11.6000299       5.79997015       5.79979992    
 Ni   11.6000299       5.79997015       8.70020008    
 Ni   11.5999203       5.80007982       11.5998297    
 Ni   11.6002197       8.69999981       0.00000000    
 Ni   11.5999403       8.69999981       2.89995003    
 Ni   11.6001902       8.69999981       5.80004978    
 Ni   11.6001902       8.69999981       8.69995022    
 Ni   11.5999403       8.69999981       11.6000500    
 Ni   11.6003399       11.6003399       0.00000000    
 Ni   11.5999203       11.5999203       2.90017009    
 Ni   11.6000299       11.6000299       5.79979992    
 Ni   11.6000299       11.6000299       8.70020008    
 Ni   11.5999203       11.5999203       11.5998297    
 Al   1.45000005       1.45000005       1.77193999    
 Al   1.45000005       1.45000005       4.35166979    
 Al   1.45000005       1.45000005       7.25000000    
 Al   1.45000005       1.45000005       10.1483297    
 Al   1.45000005       1.45000005       12.7280598    
 Al   1.45000005       4.35535002       1.45369005    
 Al   1.45000005       4.34999990       4.34997988    
 Al   1.45000005       4.34988022       7.25000000    
 Al   1.45000005       4.34999990       10.1500196    
 Al   1.45000005       4.35535002       13.0463104    
 Al   1.45000005       7.24994993       1.44994998    
 Al   1.45000005       7.25006008       4.34982014    
 Al   1.45000005       7.25004005       7.25000000    
 Al   1.45000005       7.25006008       10.1501799    
 Al   1.45000005       7.24994993       13.0500498    
 Al   1.45000005       10.1500502       1.44994998    
 Al   1.45000005       10.1499395       4.34982014    
 Al   1.45000005       10.1499596       7.25000000    
 Al   1.45000005       10.1499395       10.1501799    
 Al   1.45000005       10.1500502       13.0500498    
 Al   1.45000005       13.0446501       1.45369005    
 Al   1.45000005       13.0500002       4.34997988    
 Al   1.45000005       13.0501204       7.25000000    
 Al   1.45000005       13.0500002       10.1500196    
 Al   1.45000005       13.0446501       13.0463104    
 Al   4.35535002       1.45000005       1.45369005    
 Al   4.34999990       1.45000005       4.34997988    
 Al   4.34988022       1.45000005       7.25000000    
 Al   4.34999990       1.45000005       10.1500196    
 Al   4.35535002       1.45000005       13.0463104    
 Al   4.34978008       4.34978008       1.44889998    
 Al   4.35020018       4.35020018       4.35019016    
 Al   4.35003996       4.35003996       7.25000000    
 Al   4.35020018       4.35020018       10.1498098    
 Al   4.34978008       4.34978008       13.0510998    
 Al   4.34986019       7.24987984       1.44986999    
 Al   4.35001993       7.25003004       4.35015011    
 Al   4.35008001       7.25012016       7.25000000    
 Al   4.35001993       7.25003004       10.1498499    
 Al   4.34986019       7.24987984       13.0501299    
 Al   4.34986019       10.1501198       1.44986999    
 Al   4.35001993       10.1499701       4.35015011    
 Al   4.35008001       10.1498804       7.25000000    
 Al   4.35001993       10.1499701       10.1498499    
 Al   4.34986019       10.1501198       13.0501299    
 Al   4.34978008       13.0502195       1.44889998    
 Al   4.35020018       13.0497999       4.35019016    
 Al   4.35003996       13.0499601       7.25000000    
 Al   4.35020018       13.0497999       10.1498098    
 Al   4.34978008       13.0502195       13.0510998    
 Al   7.24994993       1.45000005       1.44994998    
 Al   7.25006008       1.45000005       4.34982014    
 Al   7.25004005       1.45000005       7.25000000    
 Al   7.25006008       1.45000005       10.1501799    
 Al   7.24994993       1.45000005       13.0500498    
 Al   7.24987984       4.34986019       1.44986999    
 Al   7.25003004       4.35001993       4.35015011    
 Al   7.25012016       4.35008001       7.25000000    
 Al   7.25003004       4.35001993       10.1498499    
 Al   7.24987984       4.34986019       13.0501299    
 Al   7.25001001       7.25001001       1.44975996    
 Al   7.25004005       7.25004005       4.35024023    
 Al   7.25001001       7.25001001       7.25000000    
 Al   7.25004005       7.25004005       10.1497602    
 Al   7.25001001       7.25001001       13.0502396    
 Al   7.25001001       10.1499901       1.44975996    
 Al   7.25004005       10.1499596       4.35024023    
 Al   7.25001001       10.1499901       7.25000000    
 Al   7.25004005       10.1499596       10.1497602    
 Al   7.25001001       10.1499901       13.0502396    
 Al   7.24987984       13.0501404       1.44986999    
 Al   7.25003004       13.0499802       4.35015011    
 Al   7.25012016       13.0499201       7.25000000    
 Al   7.25003004       13.0499802       10.1498499    
 Al   7.24987984       13.0501404       13.0501299    
 Al   10.1500502       1.45000005       1.44994998    
 Al   10.1499395       1.45000005       4.34982014    
 Al   10.1499596       1.45000005       7.25000000    
 Al   10.1499395       1.45000005       10.1501799    
 Al   10.1500502       1.45000005       13.0500498    
 Al   10.1501198       4.34986019       1.44986999    
 Al   10.1499701       4.35001993       4.35015011    
 Al   10.1498804       4.35008001       7.25000000    
 Al   10.1499701       4.35001993       10.1498499    
 Al   10.1501198       4.34986019       13.0501299    
 Al   10.1499901       7.25001001       1.44975996    
 Al   10.1499596       7.25004005       4.35024023    
 Al   10.1499901       7.25001001       7.25000000    
 Al   10.1499596       7.25004005       10.1497602    
 Al   10.1499901       7.25001001       13.0502396    
 Al   10.1499901       10.1499901       1.44975996    
 Al   10.1499596       10.1499596       4.35024023    
 Al   10.1499901       10.1499901       7.25000000    
 Al   10.1499596       10.1499596       10.1497602    
 Al   10.1499901       10.1499901       13.0502396    
 Al   10.1501198       13.0501404       1.44986999    
 Al   10.1499701       13.0499802       4.35015011    
 Al   10.1498804       13.0499201       7.25000000    
 Al   10.1499701       13.0499802       10.1498499    
 Al   10.1501198       13.0501404       13.0501299    
 Al   13.0446501       1.45000005       1.45369005    
 Al   13.0500002       1.45000005       4.34997988    
 Al   13.0501204       1.45000005       7.25000000    
 Al   13.0500002       1.45000005       10.1500196    
 Al   13.0446501       1.45000005       13.0463104    
 Al   13.0502195       4.34978008       1.44889998    
 Al   13.0497999       4.35020018       4.35019016    
 Al   13.0499601       4.35003996       7.25000000    
 Al   13.0497999       4.35020018       10.1498098    
 Al   13.0502195       4.34978008       13.0510998    
 Al   13.0501404       7.24987984       1.44986999    
 Al   13.0499802       7.25003004       4.35015011    
 Al   13.0499201       7.25012016       7.25000000    
 Al   13.0499802       7.25003004       10.1498499    
 Al   13.0501404       7.24987984       13.0501299    
 Al   13.0501404       10.1501198       1.44986999    
 Al   13.0499802       10.1499701       4.35015011    
 Al   13.0499201       10.1498804       7.25000000    
 Al   13.0499802       10.1499701       10.1498499    
 Al   13.0501404       10.1501198       13.0501299    
 Al   13.0502195       13.0502195       1.44889998    
 Al   13.0497999       13.0497999       4.35019016    
 Al   13.0499601       13.0499601       7.25000000    
 Al   13.0497999       13.0497999       10.1498098    
 Al   13.0502195       13.0502195       13.0510998    
 O    1.45000005       1.45000005       0.00000000    
         259
 Energy:  -1433.9614651000002      en  -1325.1686251000001      edisp  -108.79284000000000     
 X   0.00000000       0.00000000       0.00000000    
 X   14.5000000       0.00000000       0.00000000    
 X   0.00000000       14.5000000       0.00000000    
 X   0.00000000       0.00000000       14.5000000    
 X   14.5000000       14.5000000       0.00000000    
 X   14.5000000       0.00000000       14.5000000    
 X   0.00000000       14.5000000       14.5000000    
 X   14.5000000       14.5000000       14.5000000    
 Ni  -2.93499995E-02  -2.93499995E-02   0.00000000    
 Ni   1.04999996E-03   1.04999996E-03   2.89671993    
 Ni   9.99999975E-06   9.99999975E-06   5.79928017    
 Ni   9.99999975E-06   9.99999975E-06   8.70071983    
 Ni   1.04999996E-03   1.04999996E-03   11.6032801    
 Ni  -2.93499995E-02   2.92934990       0.00000000    
 Ni   1.04999996E-03   2.89895010       2.89671993    
 Ni   9.99999975E-06   2.89999008       5.79928017    
 Ni   9.99999975E-06   2.89999008       8.70071983    
 Ni   1.04999996E-03   2.89895010       11.6032801    
 Ni   4.40000003E-04   5.80002022       0.00000000    
 Ni  -1.30000000E-04   5.79994011       2.89995003    
 Ni   1.99999995E-05   5.79986000       5.80008984    