 running on    1 total cores
 distrk:  each k-point on    1 cores,    1 groups
 distr:  one band on    1 cores,    1 groups
 OpenACC runtime initialized ...    1 GPUs detected
 vasp.6.2.1 16May21 (build Jun 16 2021 03:23:30) complex                         
 POSCAR found type information on POSCAR NiAlO 
 POSCAR found :  3 types and     251 ions
 scaLAPACK will be used selectively (only on CPU)
 LDA part: xc-table for Pade appr. of Perdew
 POSCAR found type information on POSCAR NiAlO 
 POSCAR found :  3 types and     251 ions
 POSCAR, INCAR and KPOINTS ok, starting setup
 FFT: planning ...
 WAVECAR not read
 entering main loop
       N       E                     dE             d eps       ncg     rms          rms(c)
DAV:   1     0.117836058011E+05    0.11784E+05   -0.57200E+05 11896   0.131E+03
DAV:   2    -0.330523172043E+03   -0.12114E+05   -0.11673E+05 11738   0.440E+02
DAV:   3    -0.138081341446E+04   -0.10503E+04   -0.93107E+03 18288   0.123E+02
DAV:   4    -0.148447871499E+04   -0.10367E+03   -0.98621E+02 16608   0.440E+01
DAV:   5    -0.149335332496E+04   -0.88746E+01   -0.86902E+01 20032   0.101E+01    0.128E+02
DAV:   6    -0.173350709826E+04   -0.24015E+03   -0.54413E+03 15924   0.160E+02    0.209E+02
DAV:   7    -0.133820461218E+04    0.39530E+03   -0.11198E+03 14388   0.889E+01    0.401E+01
DAV:   8    -0.132673424250E+04    0.11470E+02   -0.39830E+02 19740   0.323E+01    0.229E+01
DAV:   9    -0.132684804224E+04   -0.11380E+00   -0.28853E+01 17856   0.227E+01    0.237E+01
DAV:  10    -0.132150523291E+04    0.53428E+01   -0.12998E+01 17032   0.192E+01    0.111E+01
DAV:  11    -0.132095624464E+04    0.54899E+00   -0.62103E+00 17688   0.102E+01    0.500E+00
DAV:  12    -0.132101384986E+04   -0.57605E-01   -0.17374E+00 17040   0.331E+00    0.344E+00
DAV:  13    -0.132103081272E+04   -0.16963E-01   -0.41650E-01 14528   0.354E+00    0.346E+00
DAV:  14    -0.132095869406E+04    0.72119E-01   -0.19841E-01 14448   0.283E+00    0.215E+00
DAV:  15    -0.132095063755E+04    0.80565E-02   -0.10732E-01 17296   0.140E+00    0.166E+00
DAV:  16    -0.132094302205E+04    0.76155E-02   -0.42402E-02 14496   0.106E+00    0.121E+00
DAV:  17    -0.132094435993E+04   -0.13379E-02   -0.16892E-02 18848   0.480E-01    0.960E-01
DAV:  18    -0.132094336547E+04    0.99446E-03   -0.45098E-03 14784   0.378E-01    0.768E-01
DAV:  19    -0.132094379999E+04   -0.43451E-03   -0.22249E-03 20024   0.153E-01    0.548E-01
DAV:  20    -0.132094366625E+04    0.13374E-03   -0.56696E-04 15448   0.127E-01    0.449E-01
DAV:  21    -0.132094326601E+04    0.40024E-03   -0.57896E-04 19640   0.814E-02    0.243E-01
DAV:  22    -0.132094316663E+04    0.99380E-04   -0.16273E-04 17392   0.470E-02    0.203E-01
DAV:  23    -0.132094304952E+04    0.11711E-03   -0.25555E-04 18552   0.371E-02    0.115E-01
DAV:  24    -0.132094302996E+04    0.19562E-04   -0.44028E-05 18000   0.218E-02    0.909E-02
DAV:  25    -0.132094301556E+04    0.14404E-04   -0.23453E-05 17128   0.164E-02    0.565E-02
DAV:  26    -0.132094301005E+04    0.55012E-05   -0.12075E-05 19864   0.913E-03    0.274E-02
DAV:  27    -0.132094300836E+04    0.16917E-05   -0.27813E-06 16240   0.695E-03    0.149E-02
DAV:  28    -0.132094300825E+04    0.11259E-06   -0.95531E-07 14464   0.285E-03    0.818E-03
DAV:  29    -0.132094300823E+04    0.21071E-07   -0.28573E-07  8968   0.240E-03
   1 F= -.14297357E+04 E0= -.14296843E+04  d E =-.142974E+04
 curvature:   0.00 expect dE= 0.000E+00 dE for cont linesearch  0.000E+00
 trial: gam= 0.00000 g(F)=  0.112E+02 g(S)=  0.000E+00 ort = 0.000E+00 (trialstep = 0.100E+01)
 search vector abs. value=  0.112E+02
 bond charge predicted
       N       E                     dE             d eps       ncg     rms          rms(c)
DAV:   1    -0.132513098918E+04   -0.41880E+01   -0.13169E+02 11976   0.120E+01    0.734E+00
DAV:   2    -0.132702144362E+04   -0.18905E+01   -0.97816E+00 14716   0.145E+01    0.136E+01
DAV:   3    -0.132507650644E+04    0.19449E+01   -0.50655E+00 14408   0.131E+01    0.450E+00
DAV:   4    -0.132536160305E+04   -0.28510E+00   -0.23453E+00 21088   0.544E+00    0.538E+00
DAV:   5    -0.132519158000E+04    0.17002E+00   -0.56742E-01 16280   0.511E+00    0.298E+00
DAV:   6    -0.132526785177E+04   -0.76272E-01   -0.53332E-01 19992   0.351E+00    0.329E+00
DAV:   7    -0.132518697524E+04    0.80877E-01   -0.23467E-01 17600   0.284E+00    0.163E+00
DAV:   8    -0.132516352902E+04    0.23446E-01   -0.82083E-02 18504   0.137E+00    0.360E-01
DAV:   9    -0.132516617143E+04   -0.26424E-02   -0.27689E-02 17792   0.753E-01    0.541E-01
DAV:  10    -0.132516392814E+04    0.22433E-02   -0.86029E-03 14352   0.575E-01    0.223E-01
DAV:  11    -0.132516395827E+04   -0.30130E-04   -0.40173E-03 17400   0.252E-01    0.192E-01
DAV:  12    -0.132516371043E+04    0.24785E-03   -0.13061E-03 14744   0.175E-01    0.671E-02
DAV:  13    -0.132516373784E+04   -0.27409E-04   -0.51197E-04 17200   0.802E-02    0.686E-02
DAV:  14    -0.132516373296E+04    0.48732E-05   -0.23417E-04 14864   0.769E-02    0.461E-02
DAV:  15    -0.132516372323E+04    0.97331E-05   -0.81106E-05 17496   0.346E-02    0.300E-02
DAV:  16    -0.132516372021E+04    0.30213E-05   -0.34564E-05 15760   0.290E-02    0.220E-02
DAV:  17    -0.132516371634E+04    0.38649E-05   -0.19785E-05 16904   0.207E-02    0.528E-03
DAV:  18    -0.132516371705E+04   -0.70049E-06   -0.73901E-06 19016   0.740E-03    0.648E-03
DAV:  19    -0.132516371681E+04    0.23150E-06   -0.14196E-06 14240   0.654E-03    0.284E-03
DAV:  20    -0.132516371674E+04    0.72228E-07   -0.35802E-07  9888   0.245E-03
   2 F= -.14339566E+04 E0= -.14339004E+04  d E =-.422094E+01
 trial-energy change:   -4.220942  1 .order   -5.459227  -11.168504    0.250050
 step:   0.9433(harm=  0.9781)  dis= 0.30369  next Energy= -1433.963958 (dE=-0.423E+01)
 bond charge predicted
       N       E                     dE             d eps       ncg     rms          rms(c)
DAV:   1    -0.132516707454E+04   -0.33577E-02   -0.40158E-01 12046   0.677E-01    0.259E-01
DAV:   2    -0.132517125244E+04   -0.41779E-02   -0.28879E-02 15968   0.551E-01    0.548E-01
DAV:   3    -0.132516883857E+04    0.24139E-02   -0.63885E-03 14846   0.461E-01    0.238E-01
DAV:   4    -0.132516879367E+04    0.44906E-04   -0.15746E-03 19856   0.788E-02    0.219E-01
DAV:   5    -0.132516877519E+04    0.18472E-04   -0.31555E-04 17104   0.790E-02    0.200E-01
DAV:   6    -0.132516869645E+04    0.78745E-04   -0.29670E-04 19176   0.109E-01    0.112E-01
DAV:   7    -0.132516893389E+04   -0.23744E-03   -0.12101E-03 18344   0.222E-01    0.176E-01
DAV:   8    -0.132516862374E+04    0.31015E-03   -0.54702E-04 16776   0.159E-01    0.263E-02
DAV:   9    -0.132516863288E+04   -0.91322E-05   -0.15943E-04 20304   0.335E-02    0.321E-02
DAV:  10    -0.132516862669E+04    0.61833E-05   -0.17017E-05 16040   0.216E-02    0.174E-02
DAV:  11    -0.132516862630E+04    0.39780E-06   -0.10657E-05 17344   0.129E-02    0.119E-02
DAV:  12    -0.132516862544E+04    0.85455E-06   -0.39338E-06 16792   0.102E-02    0.693E-03
DAV:  13    -0.132516862557E+04   -0.12486E-06   -0.26492E-06 16888   0.756E-03    0.680E-03
DAV:  14    -0.132516862514E+04    0.42748E-06   -0.10342E-06 14488   0.600E-03    0.165E-03
DAV:  15    -0.132516862516E+04   -0.23290E-07   -0.32450E-07  9104   0.203E-03
   3 F= -.14339615E+04 E0= -.14339055E+04  d E =-.422577E+01
 curvature:   0.75 expect dE= 0.914E-01 dE for cont linesearch  0.473E-03
 ZBRENT: interpolating
 opt :   0.9576  next Energy= -1433.962069 (dE=-0.423E+01)
 bond charge predicted
       N       E                     dE             d eps       ncg     rms          rms(c)
DAV:   1    -0.132516909190E+04   -0.46676E-03   -0.25504E-02 12064   0.171E-01    0.657E-02
DAV:   2    -0.132516936617E+04   -0.27427E-03   -0.18601E-03 15792   0.142E-01    0.141E-01
DAV:   3    -0.132516920513E+04    0.16104E-03   -0.42467E-04 14936   0.119E-01    0.595E-02
DAV:   4    -0.132516920290E+04    0.22276E-05   -0.10070E-04 19712   0.198E-02    0.551E-02
DAV:   5    -0.132516920181E+04    0.10885E-05   -0.18341E-05 17080   0.185E-02    0.501E-02
DAV:   6    -0.132516919825E+04    0.35590E-05   -0.16945E-05 19168   0.266E-02    0.287E-02
DAV:   7    -0.132516921425E+04   -0.15994E-04   -0.75675E-05 18336   0.558E-02    0.452E-02
DAV:   8    -0.132516919410E+04    0.20145E-04   -0.37832E-05 16744   0.408E-02    0.628E-03
DAV:   9    -0.132516919480E+04   -0.70190E-06   -0.11058E-05 20168   0.840E-03    0.803E-03
DAV:  10    -0.132516919440E+04    0.40714E-06   -0.10301E-06 14592   0.546E-03    0.440E-03
DAV:  11    -0.132516919435E+04    0.47163E-07   -0.55279E-07 11728   0.320E-03
   4 F= -.14339621E+04 E0= -.14339060E+04  d E =-.422636E+01
 curvature:  -0.95 expect dE=-0.118E+00 dE for cont linesearch -0.303E-06
 trial: gam= 0.01128 g(F)=  0.124E+00 g(S)=  0.000E+00 ort =-0.189E-02 (trialstep = 0.992E+00)
 search vector abs. value=  0.125E+00
 bond charge predicted
       N       E                     dE             d eps       ncg     rms          rms(c)
DAV:   1    -0.132525916124E+04   -0.89967E-01   -0.20095E+01 11736   0.492E+00    0.625E-01
DAV:   2    -0.132528292791E+04   -0.23767E-01   -0.27158E-01 16512   0.951E-01    0.576E-01
DAV:   3    -0.132528500296E+04   -0.20751E-02   -0.34715E-02 14848   0.103E+00    0.689E-01
DAV:   4    -0.132528096939E+04    0.40336E-02   -0.71030E-03 15200   0.556E-01    0.166E-01
DAV:   5    -0.132528189196E+04   -0.92258E-03   -0.54554E-03 18032   0.391E-01    0.339E-01
DAV:   6    -0.132528098198E+04    0.90999E-03   -0.22302E-03 15768   0.299E-01    0.102E-01
DAV:   7    -0.132528096664E+04    0.15333E-04   -0.78471E-04 17400   0.118E-01    0.726E-02
DAV:   8    -0.132528094032E+04    0.26325E-04   -0.24305E-04 15904   0.671E-02    0.477E-02
DAV:   9    -0.132528096013E+04   -0.19812E-04   -0.20527E-04 18504   0.503E-02    0.498E-02
DAV:  10    -0.132528095076E+04    0.93690E-05   -0.81729E-05 15720   0.571E-02    0.328E-02
DAV:  11    -0.132528094252E+04    0.82405E-05   -0.24722E-05 16160   0.293E-02    0.175E-02
DAV:  12    -0.132528094237E+04    0.15415E-06   -0.17839E-05 16464   0.205E-02    0.118E-02
DAV:  13    -0.132528094190E+04    0.46675E-06   -0.44748E-06 14888   0.107E-02    0.586E-03
DAV:  14    -0.132528094198E+04   -0.84226E-07   -0.23266E-06 15072   0.747E-03    0.560E-03
DAV:  15    -0.132528094180E+04    0.18025E-06   -0.10948E-06 13808   0.486E-03    0.216E-03
DAV:  16    -0.132528094180E+04    0.91168E-08   -0.47435E-07 10112   0.276E-03
   5 F= -.14340735E+04 E0= -.14340181E+04  d E =-.111422E+00
 ZBRENT: can't locate minimum, use default step
 trial-energy change:   -0.111422  1 .order   -0.111412   -0.123017   -0.099808
 step:   3.9661(harm=  5.2555)  dis= 0.05752  next Energy= -1434.288080 (dE=-0.326E+00)
 bond charge predicted
       N       E                     dE             d eps       ncg     rms          rms(c)
DAV:   1    -0.132518842702E+04    0.92515E-01   -0.18242E+02 11736   0.149E+01    0.201E+00
DAV:   2    -0.132552190311E+04   -0.33348E+00   -0.36161E+00 16622   0.360E+00    0.237E+00
DAV:   3    -0.132551650812E+04    0.53950E-02   -0.39866E-01 13992   0.358E+00    0.204E+00
DAV:   4    -0.132548350713E+04    0.33001E-01   -0.72275E-02 14848   0.151E+00    0.644E-01
DAV:   5    -0.132548854764E+04   -0.50405E-02   -0.47903E-02 16032   0.127E+00    0.930E-01
DAV:   6    -0.132548254662E+04    0.60010E-02   -0.18612E-02 14240   0.826E-01    0.367E-01
DAV:   7    -0.132548280657E+04   -0.25994E-03   -0.87491E-03 15488   0.471E-01    0.330E-01
DAV:   8    -0.132548227619E+04    0.53037E-03   -0.36183E-03 15144   0.294E-01    0.140E-01
DAV:   9    -0.132548247109E+04   -0.19489E-03   -0.18641E-03 17200   0.182E-01    0.158E-01
DAV:  10    -0.132548234002E+04    0.13107E-03   -0.76526E-04 14800   0.165E-01    0.732E-02
DAV:  11    -0.132548233858E+04    0.14435E-05   -0.33729E-04 17440   0.779E-02    0.582E-02
DAV:  12    -0.132548232930E+04    0.92763E-05   -0.14885E-04 15408   0.695E-02    0.398E-02
DAV:  13    -0.132548232349E+04    0.58082E-05   -0.46570E-05 15160   0.356E-02    0.259E-02
DAV:  14    -0.132548232186E+04    0.16295E-05   -0.25158E-05 14864   0.281E-02    0.198E-02
DAV:  15    -0.132548232050E+04    0.13655E-05   -0.15230E-05 17600   0.162E-02    0.964E-03
DAV:  16    -0.132548232005E+04    0.44305E-06   -0.51909E-06 15344   0.107E-02    0.504E-03
DAV:  17    -0.132548231993E+04    0.12248E-06   -0.22572E-06 16272   0.406E-03    0.289E-03
DAV:  18    -0.132548231994E+04   -0.12427E-07   -0.48641E-07 11480   0.352E-03
   6 F= -.14342745E+04 E0= -.14342212E+04  d E =-.312425E+00
 curvature:  -2.41 expect dE=-0.442E-01 dE for cont linesearch -0.226E-01
 ZBRENT: increasing intervall
 opt :   9.9152  next Energy= -1434.083732 (dE=-0.122E+00)
 bond charge predicted
       N       E                     dE             d eps       ncg     rms          rms(c)
DAV:   1    -0.132362368033E+04    0.18586E+01   -0.75954E+02 11736   0.309E+01    0.452E+00
DAV:   2    -0.132546702308E+04   -0.18433E+01   -0.19095E+01 15654   0.852E+00    0.620E+00
DAV:   3    -0.132536612924E+04    0.10089E+00   -0.29715E+00 13064   0.871E+00    0.401E+00
DAV:   4    -0.132528192375E+04    0.84205E-01   -0.47246E-01 14872   0.295E+00    0.141E+00
DAV:   5    -0.132530519662E+04   -0.23273E-01   -0.24341E-01 15928   0.236E+00    0.190E+00
DAV:   6    -0.132529086930E+04    0.14327E-01   -0.99205E-02 14072   0.172E+00    0.118E+00
DAV:   7    -0.132529187567E+04   -0.10064E-02   -0.47309E-02 15808   0.111E+00    0.104E+00
DAV:   8    -0.132528670091E+04    0.51748E-02   -0.31107E-02 15112   0.101E+00    0.481E-01
DAV:   9    -0.132528622800E+04    0.47291E-03   -0.10264E-02 17856   0.351E-01    0.240E-01
DAV:  10    -0.132528616306E+04    0.64943E-04   -0.32134E-03 15536   0.272E-01    0.170E-01
DAV:  11    -0.132528616732E+04   -0.42612E-05   -0.12657E-03 15504   0.149E-01    0.124E-01
DAV:  12    -0.132528618417E+04   -0.16852E-04   -0.57089E-04 15176   0.147E-01    0.121E-01
DAV:  13    -0.132528606303E+04    0.12114E-03   -0.27947E-04 15272   0.109E-01    0.475E-02
DAV:  14    -0.132528607470E+04   -0.11671E-04   -0.18468E-04 18456   0.496E-02    0.430E-02
DAV:  15    -0.132528606850E+04    0.61973E-05   -0.49106E-05 15144   0.365E-02    0.246E-02
DAV:  16    -0.132528606860E+04   -0.96494E-07   -0.26360E-05 17016   0.260E-02    0.247E-02
DAV:  17    -0.132528606465E+04    0.39533E-05   -0.17845E-05 15952   0.221E-02    0.986E-03
DAV:  18    -0.132528606493E+04   -0.28666E-06   -0.54468E-06 19056   0.670E-03    0.654E-03
DAV:  19    -0.132528606467E+04    0.26487E-06   -0.13545E-06 14432   0.636E-03    0.342E-03
DAV:  20    -0.132528606445E+04    0.21813E-06   -0.45138E-07 11960   0.251E-03    0.225E-03
DAV:  21    -0.132528606444E+04    0.82873E-08   -0.18717E-07  7448   0.219E-03
   7 F= -.14340816E+04 E0= -.14340313E+04  d E =-.119547E+00
 curvature:  20.34 expect dE= 0.301E+01 dE for cont linesearch  0.162E+01
 ZBRENT: bracketing found
 ZBRENT: interpolating
 opt :   5.4850  next Energy= -1434.300531 (dE=-0.338E+00)
 bond charge predicted
       N       E                     dE             d eps       ncg     rms          rms(c)
DAV:   1    -0.132473986685E+04    0.54620E+00   -0.41123E+02 11792   0.226E+01    0.304E+00
DAV:   2    -0.132558247126E+04   -0.84260E+00   -0.91480E+00 17042   0.485E+00    0.337E+00
DAV:   3    -0.132557479096E+04    0.76803E-02   -0.73890E-01 13320   0.493E+00    0.272E+00
DAV:   4    -0.132551641241E+04    0.58379E-01   -0.18305E-01 13616   0.289E+00    0.122E+00
DAV:   5    -0.132551252421E+04    0.38882E-02   -0.87440E-02 15624   0.167E+00    0.932E-01
DAV:   6    -0.132550894486E+04    0.35794E-02   -0.44484E-02 15560   0.105E+00    0.495E-01
DAV:   7    -0.132550891556E+04    0.29297E-04   -0.17953E-02 14528   0.744E-01    0.437E-01
DAV:   8    -0.132550785467E+04    0.10609E-02   -0.82906E-03 14632   0.456E-01    0.158E-01
DAV:   9    -0.132550821296E+04   -0.35829E-03   -0.36527E-03 16456   0.294E-01    0.212E-01
DAV:  10    -0.132550787045E+04    0.34251E-03   -0.13353E-03 14888   0.226E-01    0.793E-02
DAV:  11    -0.132550790052E+04   -0.30061E-04   -0.70568E-04 18600   0.865E-02    0.674E-02
DAV:  12    -0.132550788716E+04    0.13355E-04   -0.27881E-04 16184   0.818E-02    0.375E-02
DAV:  13    -0.132550788416E+04    0.30047E-05   -0.65412E-05 14968   0.378E-02    0.260E-02
DAV:  14    -0.132550788199E+04    0.21696E-05   -0.31482E-05 14024   0.337E-02    0.187E-02
DAV:  15    -0.132550788083E+04    0.11575E-05   -0.13282E-05 15192   0.172E-02    0.101E-02
DAV:  16    -0.132550788058E+04    0.25132E-06   -0.69895E-06 14656   0.140E-02    0.642E-03
DAV:  17    -0.132550788038E+04    0.19817E-06   -0.27824E-06 14776   0.618E-03    0.215E-03
DAV:  18    -0.132550788042E+04   -0.44616E-07   -0.92650E-07 13504   0.294E-03
   8 F= -.14343002E+04 E0= -.14342479E+04  d E =-.338162E+00
 curvature:  -0.33 expect dE=-0.571E-02 dE for cont linesearch -0.164E-05
 trial: gam= 0.15321 g(F)=  0.175E-01 g(S)=  0.000E+00 ort =-0.793E-03 (trialstep = 0.189E+01)
 search vector abs. value=  0.202E-01
 bond charge predicted
       N       E                     dE             d eps       ncg     rms          rms(c)
DAV:   1    -0.132552925595E+04   -0.21376E-01   -0.72072E+00 11736   0.316E+00    0.368E-01
DAV:   2    -0.132553851234E+04   -0.92564E-02   -0.87410E-02 14088   0.830E-01    0.693E-01
DAV:   3    -0.132553684299E+04    0.16694E-02   -0.27347E-02 13416   0.812E-01    0.262E-01
DAV:   4    -0.132553692291E+04   -0.79915E-04   -0.58695E-03 16360   0.305E-01    0.205E-01
DAV:   5    -0.132553685944E+04    0.63468E-04   -0.28996E-03 15240   0.300E-01    0.134E-01
DAV:   6    -0.132553678318E+04    0.76265E-04   -0.84157E-04 13968   0.152E-01    0.776E-02
DAV:   7    -0.132553677648E+04    0.66912E-05   -0.39487E-04 14664   0.989E-02    0.532E-02
DAV:   8    -0.132553677554E+04    0.94761E-06   -0.18212E-04 15240   0.572E-02    0.369E-02
DAV:   9    -0.132553677655E+04   -0.10104E-05   -0.85105E-05 15008   0.468E-02    0.298E-02
DAV:  10    -0.132553677380E+04    0.27479E-05   -0.37108E-05 15032   0.263E-02    0.139E-02
DAV:  11    -0.132553677494E+04   -0.11422E-05   -0.22146E-05 18216   0.163E-02    0.135E-02
DAV:  12    -0.132553677392E+04    0.10161E-05   -0.91341E-06 15872   0.140E-02    0.445E-03
DAV:  13    -0.132553677398E+04   -0.52307E-07   -0.24718E-06 16304   0.455E-03    0.438E-03
DAV:  14    -0.132553677395E+04    0.28835E-07   -0.72703E-07 12864   0.444E-03
   9 F= -.14343292E+04 E0= -.14342770E+04  d E =-.290203E-01
 ZBRENT: can't locate minimum, use default step
 trial-energy change:   -0.029020  1 .order   -0.029124   -0.032840   -0.025409
 step:   7.5609(harm=  8.3532)  dis= 0.02689  next Energy= -1434.372782 (dE=-0.726E-01)
 bond charge predicted
       N       E                     dE             d eps       ncg     rms          rms(c)
DAV:   1    -0.132548402352E+04    0.52750E-01   -0.64884E+01 11736   0.948E+00    0.120E+00
DAV:   2    -0.132559667007E+04   -0.11265E+00   -0.10518E+00 15232   0.278E+00    0.231E+00
DAV:   3    -0.132557212966E+04    0.24540E-01   -0.26959E-01 13464   0.265E+00    0.785E-01
DAV:   4    -0.132557362247E+04   -0.14928E-02   -0.61952E-02 17248   0.959E-01    0.649E-01
DAV:   5    -0.132557245501E+04    0.11675E-02   -0.25882E-02 15544   0.923E-01    0.407E-01
DAV:   6    -0.132557172163E+04    0.73338E-03   -0.76507E-03 14104   0.452E-01    0.231E-01
DAV:   7    -0.132557168893E+04    0.32703E-04   -0.36239E-03 14600   0.317E-01    0.165E-01
DAV:   8    -0.132557166796E+04    0.20961E-04   -0.15479E-03 14824   0.183E-01    0.106E-01
DAV:   9    -0.132557166461E+04    0.33596E-05   -0.70196E-04 14720   0.141E-01    0.807E-02
DAV:  10    -0.132557164401E+04    0.20591E-04   -0.32173E-04 14928   0.778E-02    0.385E-02
DAV:  11    -0.132557165724E+04   -0.13230E-04   -0.17513E-04 17032   0.500E-02    0.401E-02
DAV:  12    -0.132557164900E+04    0.82415E-05   -0.76557E-05 15640   0.426E-02    0.155E-02
DAV:  13    -0.132557165065E+04   -0.16458E-05   -0.26141E-05 16736   0.170E-02    0.155E-02
DAV:  14    -0.132557164964E+04    0.10096E-05   -0.76943E-06 14592   0.149E-02    0.968E-03
DAV:  15    -0.132557164942E+04    0.21754E-06   -0.31500E-06 19776   0.646E-03    0.679E-03
DAV:  16    -0.132557164932E+04    0.10375E-06   -0.16313E-06 16016   0.646E-03    0.445E-03
DAV:  17    -0.132557164928E+04    0.39399E-07   -0.37910E-07  9784   0.274E-03
  10 F= -.14343654E+04 E0= -.14343132E+04  d E =-.651356E-01
 curvature:  -4.78 expect dE=-0.319E-01 dE for cont linesearch -0.548E-04
 trial: gam= 0.42463 g(F)=  0.668E-02 g(S)=  0.000E+00 ort =-0.481E-03 (trialstep = 0.302E+01)
 search vector abs. value=  0.991E-02
 bond charge predicted
       N       E                     dE             d eps       ncg     rms          rms(c)
DAV:   1    -0.132557473376E+04   -0.30844E-02   -0.73869E+00 11744   0.334E+00    0.299E-01
DAV:   2    -0.132558322353E+04   -0.84898E-02   -0.90015E-02 14584   0.750E-01    0.565E-01
DAV:   3    -0.132558224023E+04    0.98330E-03   -0.17894E-02 13824   0.658E-01    0.207E-01
DAV:   4    -0.132558220694E+04    0.33292E-04   -0.40415E-03 15808   0.260E-01    0.184E-01
DAV:   5    -0.132558237251E+04   -0.16557E-03   -0.25821E-03 15408   0.273E-01    0.181E-01
DAV:   6    -0.132558214593E+04    0.22657E-03   -0.86972E-04 14176   0.169E-01    0.560E-02
DAV:   7    -0.132558225026E+04   -0.10432E-03   -0.56557E-04 18184   0.116E-01    0.101E-01
DAV:   8    -0.132558216157E+04    0.88687E-04   -0.22716E-04 16416   0.976E-02    0.207E-02
DAV:   9    -0.132558216902E+04   -0.74464E-05   -0.91429E-05 18776   0.374E-02    0.249E-02
DAV:  10    -0.132558216474E+04    0.42761E-05   -0.22113E-05 15216   0.270E-02    0.950E-03
DAV:  11    -0.132558216472E+04    0.21959E-07   -0.80101E-06 16952   0.108E-02    0.104E-02
DAV:  12    -0.132558216422E+04    0.49395E-06   -0.36016E-06 14704   0.103E-02    0.676E-03
DAV:  13    -0.132558216419E+04    0.32895E-07   -0.13676E-06 15632   0.472E-03    0.320E-03
DAV:  14    -0.132558216421E+04   -0.23094E-07   -0.56544E-07 12040   0.395E-03
  11 F= -.14343755E+04 E0= -.14343236E+04  d E =-.101464E-01
 trial-energy change:   -0.010146  1 .order   -0.010432   -0.019582   -0.001282
 step:   3.2600(harm=  3.2362)  dis= 0.01818  next Energy= -1434.375551 (dE=-0.102E-01)
 bond charge predicted
       N       E                     dE             d eps       ncg     rms          rms(c)
DAV:   1    -0.132558216656E+04   -0.23717E-05   -0.44878E-02 11808   0.261E-01    0.230E-02
DAV:   2    -0.132558221632E+04   -0.49755E-04   -0.51875E-04 14472   0.582E-02    0.445E-02
DAV:   3    -0.132558220974E+04    0.65779E-05   -0.10617E-04 13840   0.513E-02    0.161E-02
DAV:   4    -0.132558220954E+04    0.20352E-06   -0.24210E-05 15664   0.196E-02    0.141E-02
DAV:   5    -0.132558221083E+04   -0.12917E-05   -0.16351E-05 15398   0.215E-02    0.149E-02
DAV:   6    -0.132558220939E+04    0.14403E-05   -0.53770E-06 14248   0.133E-02    0.441E-03
DAV:   7    -0.132558220999E+04   -0.59903E-06   -0.35054E-06 18078   0.919E-03    0.780E-03
DAV:   8    -0.132558220945E+04    0.53960E-06   -0.13464E-06 16032   0.754E-03    0.159E-03
DAV:   9    -0.132558220951E+04   -0.64654E-07   -0.42106E-07 10424   0.302E-03
  12 F= -.14343756E+04 E0= -.14343236E+04  d E =-.101957E-01
 curvature:  -2.45 expect dE=-0.566E-02 dE for cont linesearch -0.247E-06
 trial: gam= 0.31508 g(F)=  0.232E-02 g(S)=  0.000E+00 ort =-0.316E-04 (trialstep = 0.307E+01)
 search vector abs. value=  0.328E-02
 bond charge predicted
       N       E                     dE             d eps       ncg     rms          rms(c)
DAV:   1    -0.132558297191E+04   -0.76247E-03   -0.45289E+00 11736   0.262E+00    0.220E-01
DAV:   2    -0.132558747110E+04   -0.44992E-02   -0.48905E-02 15158   0.516E-01    0.349E-01
DAV:   3    -0.132558724832E+04    0.22278E-03   -0.86893E-03 13704   0.467E-01    0.158E-01
DAV:   4    -0.132558720422E+04    0.44103E-04   -0.14827E-03 15488   0.216E-01    0.134E-01
DAV:   5    -0.132558711535E+04    0.88869E-04   -0.10951E-03 15040   0.190E-01    0.770E-02
DAV:   6    -0.132558709971E+04    0.15642E-04   -0.40023E-04 14320   0.818E-02    0.425E-02
DAV:   7    -0.132558710414E+04   -0.44328E-05   -0.17485E-04 15950   0.596E-02    0.333E-02
DAV:   8    -0.132558709935E+04    0.47891E-05   -0.66327E-05 14776   0.334E-02    0.136E-02
DAV:   9    -0.132558710218E+04   -0.28331E-05   -0.30532E-05 16524   0.215E-02    0.149E-02
DAV:  10    -0.132558710143E+04    0.75076E-06   -0.10136E-05 14080   0.170E-02    0.652E-03
DAV:  11    -0.132558710159E+04   -0.15770E-06   -0.46586E-06 17976   0.790E-03    0.637E-03
DAV:  12    -0.132558710134E+04    0.25173E-06   -0.15030E-06 15024   0.659E-03    0.322E-03
DAV:  13    -0.132558710136E+04   -0.19158E-07   -0.43557E-07 11400   0.279E-03
  13 F= -.14343806E+04 E0= -.14343286E+04  d E =-.502600E-02
 trial-energy change:   -0.005026  1 .order   -0.005009   -0.007082   -0.002935
 step:   5.1585(harm=  5.2458)  dis= 0.00519  next Energy= -1434.381579 (dE=-0.603E-02)
 bond charge predicted
       N       E                     dE             d eps       ncg     rms          rms(c)
DAV:   1    -0.132558625414E+04    0.84720E-03   -0.20910E+00 11736   0.178E+00    0.148E-01
DAV:   2    -0.132558830364E+04   -0.20495E-02   -0.22252E-02 15214   0.348E-01    0.235E-01
DAV:   3    -0.132558820298E+04    0.10065E-03   -0.38986E-03 13728   0.315E-01    0.107E-01
DAV:   4    -0.132558818220E+04    0.20783E-04   -0.66401E-04 15608   0.145E-01    0.905E-02
DAV:   5    -0.132558814177E+04    0.40434E-04   -0.49713E-04 15080   0.128E-01    0.519E-02
DAV:   6    -0.132558813449E+04    0.72804E-05   -0.17792E-04 14184   0.549E-02    0.285E-02
DAV:   7    -0.132558813662E+04   -0.21355E-05   -0.79883E-05 15864   0.401E-02    0.226E-02
DAV:   8    -0.132558813439E+04    0.22331E-05   -0.30166E-05 14800   0.224E-02    0.911E-03
DAV:   9    -0.132558813580E+04   -0.14106E-05   -0.13736E-05 16608   0.145E-02    0.100E-02
DAV:  10    -0.132558813552E+04    0.27654E-06   -0.45294E-06 14144   0.113E-02    0.439E-03
DAV:  11    -0.132558813556E+04   -0.42375E-07   -0.21219E-06 17480   0.545E-03    0.434E-03
DAV:  12    -0.132558813543E+04    0.13175E-06   -0.68046E-07 13056   0.446E-03    0.215E-03
DAV:  13    -0.132558813547E+04   -0.32298E-07   -0.18076E-07  7360   0.198E-03
  14 F= -.14343821E+04 E0= -.14343302E+04  d E =-.655605E-02
 curvature:  -3.72 expect dE=-0.144E-02 dE for cont linesearch -0.157E-04
 ZBRENT: extrapolating
 opt :   5.4510  next Energy= -1434.382124 (dE=-0.657E-02)
 bond charge predicted
       N       E                     dE             d eps       ncg     rms          rms(c)
DAV:   1    -0.132558810571E+04    0.29723E-04   -0.41043E-02 11792   0.250E-01    0.206E-02
DAV:   2    -0.132558814573E+04   -0.40017E-04   -0.42862E-04 15192   0.486E-02    0.328E-02
DAV:   3    -0.132558814370E+04    0.20259E-05   -0.75311E-05 13736   0.441E-02    0.149E-02
DAV:   4    -0.132558814353E+04    0.17071E-06   -0.13357E-05 15880   0.201E-02    0.127E-02
DAV:   5    -0.132558814277E+04    0.76117E-06   -0.97510E-06 15168   0.179E-02    0.720E-03
DAV:   6    -0.132558814270E+04    0.68627E-07   -0.34343E-06 14224   0.754E-03    0.392E-03
DAV:   7    -0.132558814274E+04   -0.42361E-07   -0.15508E-06 15024   0.563E-03    0.319E-03
DAV:   8    -0.132558814269E+04    0.51848E-07   -0.55703E-07 11424   0.315E-03
  15 F= -.14343821E+04 E0= -.14343302E+04  d E =-.657942E-02
 curvature:  -4.08 expect dE=-0.168E-02 dE for cont linesearch -0.516E-06
 trial: gam= 0.20797 g(F)=  0.411E-03 g(S)=  0.000E+00 ort = 0.204E-04 (trialstep = 0.355E+01)
 search vector abs. value=  0.561E-03
 bond charge predicted
       N       E                     dE             d eps       ncg     rms          rms(c)
DAV:   1    -0.132558851537E+04   -0.37263E-03   -0.69841E-01 11736   0.105E+00    0.938E-02
DAV:   2    -0.132558936016E+04   -0.84479E-03   -0.79262E-03 14408   0.272E-01    0.215E-01
DAV:   3    -0.132558916313E+04    0.19703E-03   -0.23074E-03 13510   0.238E-01    0.429E-02
DAV:   4    -0.132558922599E+04   -0.62861E-04   -0.51774E-04 15712   0.103E-01    0.838E-02
DAV:   5    -0.132558917983E+04    0.46164E-04   -0.30322E-04 14448   0.949E-02    0.174E-02
DAV:   6    -0.132558919006E+04   -0.10235E-04   -0.12476E-04 20376   0.233E-02    0.164E-02
DAV:   7    -0.132558918857E+04    0.14962E-05   -0.12575E-05 15200   0.206E-02    0.857E-03
DAV:   8    -0.132558918814E+04    0.43029E-06   -0.42551E-06 18312   0.973E-03    0.650E-03
DAV:   9    -0.132558918819E+04   -0.56556E-07   -0.23219E-06 15792   0.939E-03    0.603E-03
DAV:  10    -0.132558918808E+04    0.10955E-06   -0.11419E-06 14400   0.584E-03    0.317E-03
DAV:  11    -0.132558918796E+04    0.12299E-06   -0.51797E-07 11880   0.349E-03    0.224E-03
DAV:  12    -0.132558918787E+04    0.88374E-07   -0.21792E-07  7592   0.212E-03
  16 F= -.14343832E+04 E0= -.14343312E+04  d E =-.104516E-02
 trial-energy change:   -0.001045  1 .order   -0.001043   -0.001473   -0.000614
 step:   6.0827(harm=  6.0827)  dis= 0.00205  next Energy= -1434.383393 (dE=-0.126E-02)
 bond charge predicted
       N       E                     dE             d eps       ncg     rms          rms(c)
DAV:   1    -0.132558906601E+04    0.12195E-03   -0.35664E-01 11746   0.748E-01    0.670E-02
DAV:   2    -0.132558949529E+04   -0.42929E-03   -0.40401E-03 14368   0.194E-01    0.153E-01
DAV:   3    -0.132558939588E+04    0.99417E-04   -0.11689E-03 13508   0.169E-01    0.304E-02
DAV:   4    -0.132558942818E+04   -0.32301E-04   -0.26318E-04 15776   0.737E-02    0.600E-02
DAV:   5    -0.132558940441E+04    0.23771E-04   -0.15394E-04 14520   0.677E-02    0.123E-02
DAV:   6    -0.132558940963E+04   -0.52250E-05   -0.62985E-05 20408   0.168E-02    0.118E-02
DAV:   7    -0.132558940884E+04    0.79536E-06   -0.64477E-06 15208   0.149E-02    0.611E-03
DAV:   8    -0.132558940863E+04    0.21097E-06   -0.22305E-06 18392   0.705E-03    0.486E-03
DAV:   9    -0.132558940862E+04    0.36962E-08   -0.11788E-06 14944   0.677E-03    0.419E-03
DAV:  10    -0.132558940858E+04    0.43197E-07   -0.54342E-07 12912   0.398E-03
  17 F= -.14343834E+04 E0= -.14343314E+04  d E =-.126932E-02
 curvature:  -4.11 expect dE=-0.337E-03 dE for cont linesearch -0.121E-05
 trial: gam= 0.17360 g(F)=  0.820E-04 g(S)=  0.000E+00 ort = 0.129E-04 (trialstep = 0.405E+01)
 search vector abs. value=  0.103E-03
 bond charge predicted
       N       E                     dE             d eps       ncg     rms          rms(c)
DAV:   1    -0.132558939032E+04    0.18302E-04   -0.17342E-01 11756   0.524E-01    0.440E-02
DAV:   2    -0.132558957929E+04   -0.18897E-03   -0.20466E-03 15592   0.100E-01    0.776E-02
DAV:   3    -0.132558956116E+04    0.18132E-04   -0.35020E-04 13808   0.905E-02    0.321E-02
DAV:   4    -0.132558955949E+04    0.16740E-05   -0.60050E-05 14784   0.372E-02    0.253E-02
DAV:   5    -0.132558956132E+04   -0.18305E-05   -0.54062E-05 15136   0.398E-02    0.221E-02
DAV:   6    -0.132558955803E+04    0.32834E-05   -0.16082E-05 14448   0.217E-02    0.844E-03
DAV:   7    -0.132558955971E+04   -0.16775E-05   -0.12060E-05 16880   0.167E-02    0.131E-02
DAV:   8    -0.132558955851E+04    0.12027E-05   -0.48711E-06 15472   0.128E-02    0.298E-03
DAV:   9    -0.132558955863E+04   -0.12051E-06   -0.21198E-06 17144   0.458E-03    0.328E-03
DAV:  10    -0.132558955855E+04    0.82022E-07   -0.38797E-07 10688   0.338E-03
  18 F= -.14343836E+04 E0= -.14343315E+04  d E =-.179338E-03
 trial-energy change:   -0.000179  1 .order   -0.000183   -0.000342   -0.000025
 step:   4.3957(harm=  4.3695)  dis= 0.00191  next Energy= -1434.383580 (dE=-0.180E-03)
 bond charge predicted
       N       E                     dE             d eps       ncg     rms          rms(c)
DAV:   1    -0.132558955559E+04    0.30388E-05   -0.12279E-03 11848   0.441E-02    0.377E-03
DAV:   2    -0.132558955704E+04   -0.14494E-05   -0.13754E-05 15056   0.978E-03    0.787E-03
DAV:   3    -0.132558955679E+04    0.25237E-06   -0.33702E-06 13592   0.928E-03    0.262E-03
DAV:   4    -0.132558955682E+04   -0.34015E-07   -0.68475E-07 12640   0.340E-03    0.256E-03
DAV:   5    -0.132558955682E+04    0.46712E-08   -0.47207E-07 11376   0.361E-03    0.160E-03
DAV:   6    -0.132558955682E+04   -0.20445E-08   -0.11108E-07  6464   0.167E-03
  19 F= -.14343836E+04 E0= -.14343315E+04  d E =-.180106E-03
 curvature:  -2.66 expect dE=-0.138E-03 dE for cont linesearch -0.719E-07
 trial: gam= 0.64496 g(F)=  0.519E-04 g(S)=  0.000E+00 ort =-0.167E-05 (trialstep = 0.412E+01)
 search vector abs. value=  0.927E-04
 bond charge predicted
       N       E                     dE             d eps       ncg     rms          rms(c)
DAV:   1    -0.132558951684E+04    0.39972E-04   -0.18865E-01 11754   0.543E-01    0.432E-02
DAV:   2    -0.132558969828E+04   -0.18143E-03   -0.21288E-03 15960   0.865E-02    0.515E-02
DAV:   3    -0.132558970260E+04   -0.43219E-05   -0.24534E-04 13748   0.801E-02    0.384E-02
DAV:   4    -0.132558969178E+04    0.10821E-04   -0.56291E-05 14696   0.426E-02    0.168E-02
DAV:   5    -0.132558969508E+04   -0.32999E-05   -0.31431E-05 16990   0.294E-02    0.198E-02
DAV:   6    -0.132558969164E+04    0.34343E-05   -0.11491E-05 15232   0.222E-02    0.707E-03
DAV:   7    -0.132558969246E+04   -0.82156E-06   -0.70005E-06 17800   0.125E-02    0.100E-02
DAV:   8    -0.132558969159E+04    0.87738E-06   -0.25996E-06 15760   0.978E-03    0.249E-03
DAV:   9    -0.132558969162E+04   -0.36460E-07   -0.88113E-07 14432   0.359E-03
  20 F= -.14343837E+04 E0= -.14343316E+04  d E =-.116344E-03
 trial-energy change:   -0.000116  1 .order   -0.000115   -0.000209   -0.000020
 step:   4.5281(harm=  4.5531)  dis= 0.00104  next Energy= -1434.383697 (dE=-0.117E-03)
 bond charge predicted
       N       E                     dE             d eps       ncg     rms          rms(c)
DAV:   1    -0.132558969271E+04   -0.11290E-05   -0.18233E-03 11800   0.534E-02    0.445E-03
DAV:   2    -0.132558969459E+04   -0.18743E-05   -0.20381E-05 15512   0.100E-02    0.711E-03
DAV:   3    -0.132558969447E+04    0.12277E-06   -0.34814E-06 13480   0.967E-03    0.329E-03
DAV:   4    -0.132558969439E+04    0.76667E-07   -0.69299E-07 12928   0.407E-03    0.261E-03
DAV:   5    -0.132558969437E+04    0.18546E-07   -0.36494E-07 10792   0.345E-03    0.144E-03
DAV:   6    -0.132558969438E+04   -0.12493E-07   -0.13840E-07  6664   0.172E-03
  21 F= -.14343837E+04 E0= -.14343316E+04  d E =-.117310E-03
 curvature:  -4.14 expect dE=-0.508E-04 dE for cont linesearch -0.352E-07
 trial: gam= 0.19110 g(F)=  0.123E-04 g(S)=  0.000E+00 ort =-0.888E-06 (trialstep = 0.420E+01)
 search vector abs. value=  0.153E-04
 bond charge predicted
       N       E                     dE             d eps       ncg     rms          rms(c)
DAV:   1    -0.132558969291E+04    0.14622E-05   -0.39280E-02 11760   0.249E-01    0.185E-02
DAV:   2    -0.132558972827E+04   -0.35357E-04   -0.41369E-04 15984   0.377E-02    0.212E-02
DAV:   3    -0.132558972992E+04   -0.16544E-05   -0.46508E-05 13968   0.350E-02    0.171E-02
DAV:   4    -0.132558972766E+04    0.22586E-05   -0.84522E-06 14120   0.187E-02    0.662E-03
DAV:   5    -0.132558972777E+04   -0.10942E-06   -0.49352E-06 17792   0.103E-02    0.487E-03
DAV:   6    -0.132558972767E+04    0.98473E-07   -0.12773E-06 14144   0.547E-03    0.232E-03
DAV:   7    -0.132558972770E+04   -0.23159E-07   -0.52864E-07 10640   0.321E-03
  22 F= -.14343837E+04 E0= -.14343317E+04  d E =-.418188E-04
 trial-energy change:   -0.000042  1 .order   -0.000039   -0.000051   -0.000028
 step:   6.7836(harm=  9.3641)  dis= 0.00041  next Energy= -1434.383748 (dE=-0.510E-04)
 bond charge predicted
       N       E                     dE             d eps       ncg     rms          rms(c)
DAV:   1    -0.132558972254E+04    0.51358E-05   -0.14793E-02 11768   0.153E-01    0.115E-02
DAV:   2    -0.132558973595E+04   -0.13414E-04   -0.15462E-04 15792   0.239E-02    0.143E-02
DAV:   3    -0.132558973633E+04   -0.38155E-06   -0.19447E-05 13854   0.226E-02    0.100E-02
DAV:   4    -0.132558973566E+04    0.67363E-06   -0.32769E-06 14016   0.111E-02    0.448E-03
DAV:   5    -0.132558973571E+04   -0.46639E-07   -0.21011E-06 16632   0.686E-03    0.317E-03
DAV:   6    -0.132558973571E+04   -0.41182E-08   -0.56705E-07 11312   0.349E-03
  23 F= -.14343838E+04 E0= -.14343317E+04  d E =-.550882E-04
 curvature:  -4.44 expect dE=-0.129E-04 dE for cont linesearch -0.176E-05
 ZBRENT: increasing intervall
 opt :  11.9433  next Energy= -1434.383743 (dE=-0.461E-04)
 bond charge predicted
       N       E                     dE             d eps       ncg     rms          rms(c)
DAV:   1    -0.132558967167E+04    0.64040E-04   -0.59171E-02 11760   0.305E-01    0.229E-02
DAV:   2    -0.132558972508E+04   -0.53413E-04   -0.62242E-04 15992   0.468E-02    0.271E-02
DAV:   3    -0.132558972709E+04   -0.20161E-05   -0.71245E-05 13928   0.442E-02    0.205E-02
DAV:   4    -0.132558972426E+04    0.28335E-05   -0.13187E-05 14128   0.238E-02    0.104E-02
DAV:   5    -0.132558972385E+04    0.41455E-06   -0.73200E-06 16560   0.138E-02    0.499E-03
DAV:   6    -0.132558972388E+04   -0.33106E-07   -0.24912E-06 14992   0.595E-03    0.306E-03
DAV:   7    -0.132558972392E+04   -0.44114E-07   -0.87852E-07 13024   0.429E-03
  24 F= -.14343838E+04 E0= -.14343317E+04  d E =-.538962E-04
 curvature:  22.61 expect dE= 0.243E-03 dE for cont linesearch  0.259E-04
 ZBRENT: bracketing found
 ZBRENT: interpolating
 opt :   8.6949  next Energy= -1434.383754 (dE=-0.574E-04)
 bond charge predicted
       N       E                     dE             d eps       ncg     rms          rms(c)
DAV:   1    -0.132558971518E+04    0.86988E-05   -0.23440E-02 11760   0.192E-01    0.142E-02
DAV:   2    -0.132558973619E+04   -0.21009E-04   -0.24845E-04 16160   0.284E-02    0.154E-02
DAV:   3    -0.132558973739E+04   -0.11976E-05   -0.24778E-05 14006   0.266E-02    0.139E-02
DAV:   4    -0.132558973577E+04    0.16222E-05   -0.50340E-06 14000   0.155E-02    0.609E-03
DAV:   5    -0.132558973560E+04    0.16643E-06   -0.25326E-06 16302   0.805E-03    0.299E-03
DAV:   6    -0.132558973555E+04    0.48705E-07   -0.80558E-07 12560   0.367E-03
  25 F= -.14343838E+04 E0= -.14343317E+04  d E =-.588403E-04
 curvature:  -2.06 expect dE=-0.119E-04 dE for cont linesearch -0.209E-06
 trial: gam= 0.41647 g(F)=  0.578E-05 g(S)=  0.000E+00 ort = 0.125E-05 (trialstep = 0.510E+01)
 search vector abs. value=  0.948E-05
 bond charge predicted
       N       E                     dE             d eps       ncg     rms          rms(c)
DAV:   1    -0.132558973142E+04    0.41754E-05   -0.31417E-02 11760   0.222E-01    0.167E-02
DAV:   2    -0.132558975960E+04   -0.28178E-04   -0.32990E-04 15744   0.357E-02    0.221E-02
DAV:   3    -0.132558975975E+04   -0.14982E-06   -0.41355E-05 13824   0.332E-02    0.138E-02
DAV:   4    -0.132558975846E+04    0.12924E-05   -0.80824E-06 14880   0.158E-02    0.720E-03
DAV:   5    -0.132558975837E+04    0.86155E-07   -0.36921E-06 15240   0.103E-02    0.460E-03
DAV:   6    -0.132558975831E+04    0.67128E-07   -0.14990E-06 13616   0.561E-03    0.276E-03
DAV:   7    -0.132558975832E+04   -0.19427E-07   -0.75556E-07 12512   0.382E-03
  26 F= -.14343838E+04 E0= -.14343317E+04  d E =-.191930E-04
 trial-energy change:   -0.000019  1 .order   -0.000019   -0.000032   -0.000006
 step:   6.3942(harm=  6.3942)  dis= 0.00031  next Energy= -1434.383776 (dE=-0.202E-04)
 bond charge predicted
       N       E                     dE             d eps       ncg     rms          rms(c)
DAV:   1    -0.132558975866E+04   -0.35149E-06   -0.20194E-03 11788   0.562E-02    0.456E-03
DAV:   2    -0.132558976068E+04   -0.20239E-05   -0.22815E-05 15504   0.104E-02    0.711E-03
DAV:   3    -0.132558976060E+04    0.83644E-07   -0.38788E-06 13640   0.975E-03    0.324E-03
DAV:   4    -0.132558976055E+04    0.43707E-07   -0.63040E-07 12352   0.400E-03    0.239E-03
DAV:   5    -0.132558976053E+04    0.22810E-07   -0.36174E-07  9936   0.324E-03    0.123E-03
DAV:   6    -0.132558976054E+04   -0.54642E-08   -0.12747E-07  6448   0.150E-03
  27 F= -.14343838E+04 E0= -.14343317E+04  d E =-.205045E-04
 curvature:  -4.81 expect dE=-0.136E-04 dE for cont linesearch -0.191E-07
 trial: gam= 0.38900 g(F)=  0.284E-05 g(S)=  0.000E+00 ort = 0.194E-06 (trialstep = 0.536E+01)
 search vector abs. value=  0.442E-05
 bond charge predicted
       N       E                     dE             d eps       ncg     rms          rms(c)
DAV:   1    -0.132558975738E+04    0.31477E-05   -0.81802E-03 11760   0.114E-01    0.105E-02
DAV:   2    -0.132558976678E+04   -0.93956E-05   -0.10673E-04 15152   0.241E-02    0.184E-02
DAV:   3    -0.132558976581E+04    0.97007E-06   -0.20745E-05 13632   0.220E-02    0.690E-03
DAV:   4    -0.132558976581E+04   -0.55225E-08   -0.42493E-06 15272   0.829E-03    0.551E-03
DAV:   5    -0.132558976605E+04   -0.23815E-06   -0.26517E-06 14894   0.880E-03    0.550E-03
DAV:   6    -0.132558976585E+04    0.20137E-06   -0.92905E-07 13016   0.575E-03    0.187E-03
DAV:   7    -0.132558976595E+04   -0.98407E-07   -0.60987E-07 13086   0.373E-03
  28 F= -.14343838E+04 E0= -.14343317E+04  d E =-.720607E-05
 trial-energy change:   -0.000007  1 .order   -0.000006   -0.000016    0.000003
 step:   4.6483(harm=  4.4529)  dis= 0.00031  next Energy= -1434.383783 (dE=-0.742E-05)
 bond charge predicted
       N       E                     dE             d eps       ncg     rms          rms(c)
DAV:   1    -0.132558976589E+04   -0.39116E-07   -0.14335E-04 11804   0.155E-02    0.170E-03
DAV:   2    -0.132558976612E+04   -0.22850E-06   -0.22033E-06 13968   0.428E-03    0.346E-03
DAV:   3    -0.132558976607E+04    0.44187E-07   -0.69261E-07 11976   0.434E-03    0.106E-03
DAV:   4    -0.132558976606E+04    0.15672E-07   -0.11912E-07  6456   0.153E-03    0.936E-04
DAV:   5    -0.132558976606E+04    0.42201E-09   -0.68334E-08  6194   0.129E-03    0.571E-04
DAV:   6    -0.132558976606E+04   -0.40309E-08   -0.36718E-08  6178   0.720E-04
  29 F= -.14343838E+04 E0= -.14343317E+04  d E =-.707928E-05
 curvature:  -3.22 expect dE=-0.599E-05 dE for cont linesearch -0.419E-07
 trial: gam= 0.69414 g(F)=  0.186E-05 g(S)=  0.000E+00 ort = 0.240E-06 (trialstep = 0.522E+01)
 search vector abs. value=  0.432E-05
 bond charge predicted
       N       E                     dE             d eps       ncg     rms          rms(c)
DAV:   1    -0.132558976962E+04   -0.35642E-05   -0.12118E-02 11760   0.139E-01    0.108E-02
DAV:   2    -0.132558978092E+04   -0.11299E-04   -0.13464E-04 16206   0.206E-02    0.120E-02
DAV:   3    -0.132558978163E+04   -0.70719E-06   -0.13602E-05 14052   0.203E-02    0.117E-02
DAV:   4    -0.132558978048E+04    0.11464E-05   -0.27190E-06 14320   0.113E-02    0.399E-03
DAV:   5    -0.132558978064E+04   -0.16316E-06   -0.21812E-06 16464   0.753E-03    0.470E-03
DAV:   6    -0.132558978045E+04    0.19283E-06   -0.68460E-07 12880   0.509E-03    0.155E-03
DAV:   7    -0.132558978048E+04   -0.29977E-07   -0.33437E-07  9024   0.257E-03
  30 F= -.14343838E+04 E0= -.14343317E+04  d E =-.533826E-05
 trial-energy change:   -0.000005  1 .order   -0.000005   -0.000011   -0.000000
 step:   5.2654(harm=  5.2654)  dis= 0.00026  next Energy= -1434.383788 (dE=-0.533E-05)
 bond charge predicted
       N       E                     dE             d eps       ncg     rms          rms(c)
DAV:   1    -0.132558978030E+04    0.14825E-06   -0.12602E-06 14408   0.264E-03    0.754E-04
DAV:   2    -0.132558978035E+04   -0.41655E-07   -0.12759E-07  7126   0.232E-03    0.188E-03
DAV:   3    -0.132558978031E+04    0.38206E-07   -0.64632E-08  6338   0.205E-03    0.375E-04
DAV:   4    -0.132558978030E+04    0.63010E-08   -0.20268E-08  6194   0.624E-04    0.503E-04
DAV:   5    -0.132558978030E+04    0.27139E-08   -0.15402E-08  6186   0.576E-04    0.173E-04
DAV:   6    -0.132558978030E+04   -0.60681E-08   -0.62760E-09  6186   0.261E-04
  31 F= -.14343838E+04 E0= -.14343317E+04  d E =-.507828E-05
 curvature:  -5.62 expect dE=-0.659E-05 dE for cont linesearch -0.168E-07
 trial: gam= 0.63737 g(F)=  0.117E-05 g(S)=  0.000E+00 ort = 0.114E-06 (trialstep = 0.523E+01)
 search vector abs. value=  0.307E-05
 bond charge predicted
       N       E                     dE             d eps       ncg     rms          rms(c)
DAV:   1    -0.132558977653E+04    0.37674E-05   -0.13293E-02 11760   0.143E-01    0.100E-02
DAV:   2    -0.132558978717E+04   -0.10641E-04   -0.12644E-04 16470   0.193E-02    0.961E-03
DAV:   3    -0.132558978819E+04   -0.10174E-05   -0.12107E-05 14584   0.188E-02    0.113E-02
DAV:   4    -0.132558978712E+04    0.10685E-05   -0.23955E-06 14200   0.116E-02    0.433E-03
DAV:   5    -0.132558978700E+04    0.12066E-06   -0.11404E-06 15398   0.556E-03    0.202E-03
DAV:   6    -0.132558978700E+04    0.26193E-09   -0.33546E-07  8424   0.234E-03
  32 F= -.14343838E+04 E0= -.14343317E+04  d E =-.353681E-05
 trial-energy change:   -0.000004  1 .order   -0.000003   -0.000007    0.000001
 step:   4.8561(harm=  4.6654)  dis= 0.00018  next Energy= -1434.383792 (dE=-0.356E-05)
 bond charge predicted
       N       E                     dE             d eps       ncg     rms          rms(c)
DAV:   1    -0.132558978643E+04    0.56770E-06   -0.66676E-05 11812   0.103E-02    0.138E-03
DAV:   2    -0.132558978659E+04   -0.16043E-06   -0.87826E-07 11752   0.467E-03    0.389E-03
DAV:   3    -0.132558978648E+04    0.11453E-06   -0.42973E-07 10462   0.405E-03    0.457E-04
DAV:   4    -0.132558978649E+04   -0.11321E-07   -0.74240E-08  6218   0.119E-03    0.905E-04
DAV:   5    -0.132558978649E+04    0.20300E-08   -0.52786E-08  6194   0.103E-03    0.262E-04
DAV:   6    -0.132558978649E+04   -0.23283E-09   -0.23248E-08  6154   0.407E-04
  33 F= -.14343838E+04 E0= -.14343317E+04  d E =-.324850E-05
 curvature:  -5.09 expect dE=-0.301E-05 dE for cont linesearch -0.102E-06
 trial: gam= 0.02628 g(F)=  0.591E-06 g(S)=  0.000E+00 ort = 0.248E-06 (trialstep = 0.515E+01)
 search vector abs. value=  0.606E-06
 bond charge predicted
       N       E                     dE             d eps       ncg     rms          rms(c)
DAV:   1    -0.132558978199E+04    0.45019E-05   -0.14663E-03 11762   0.483E-02    0.432E-03
DAV:   2    -0.132558978373E+04   -0.17439E-05   -0.19017E-05 15808   0.927E-03    0.675E-03
DAV:   3    -0.132558978362E+04    0.10725E-06   -0.28395E-06 13750   0.856E-03    0.361E-03
DAV:   4    -0.132558978357E+04    0.50153E-07   -0.49697E-07 12200   0.342E-03    0.207E-03
DAV:   5    -0.132558978364E+04   -0.73262E-07   -0.45843E-07 11736   0.381E-03    0.269E-03
DAV:   6    -0.132558978360E+04    0.47061E-07   -0.18350E-07  7264   0.276E-03
  34 F= -.14343838E+04 E0= -.14343317E+04  d E =-.136555E-05
 trial-energy change:   -0.000001  1 .order   -0.000001   -0.000003    0.000001
 step:   4.3295(harm=  4.3295)  dis= 0.00014  next Energy= -1434.383793 (dE=-0.129E-05)
 bond charge predicted
       N       E                     dE             d eps       ncg     rms          rms(c)
DAV:   1    -0.132558978414E+04   -0.49116E-06   -0.37249E-05 11804   0.784E-03    0.153E-03
DAV:   2    -0.132558978436E+04   -0.22502E-06   -0.80071E-07 12976   0.578E-03    0.474E-03
DAV:   3    -0.132558978415E+04    0.21041E-06   -0.41309E-07 11648   0.475E-03    0.554E-04
DAV:   4    -0.132558978415E+04    0.13097E-08   -0.61994E-08  6122   0.106E-03    0.707E-04
DAV:   5    -0.132558978415E+04    0.39872E-08   -0.48174E-08  6098   0.858E-04    0.340E-04
DAV:   6    -0.132558978415E+04   -0.26776E-08   -0.21240E-08  6042   0.522E-04
  35 F= -.14343838E+04 E0= -.14343317E+04  d E =-.123509E-05
 curvature:  -2.20 expect dE=-0.821E-06 dE for cont linesearch -0.405E-07
 trial: gam= 0.45910 g(F)=  0.374E-06 g(S)=  0.000E+00 ort = 0.106E-06 (trialstep = 0.499E+01)
 search vector abs. value=  0.599E-06
 bond charge predicted
       N       E                     dE             d eps       ncg     rms          rms(c)
DAV:   1    -0.132558978429E+04   -0.14155E-06   -0.16493E-03 11760   0.512E-02    0.422E-03
DAV:   2    -0.132558978603E+04   -0.17448E-05   -0.19487E-05 15694   0.940E-03    0.660E-03
DAV:   3    -0.132558978594E+04    0.90629E-07   -0.28145E-06 13710   0.851E-03    0.310E-03
DAV:   4    -0.132558978588E+04    0.62631E-07   -0.50496E-07 12392   0.386E-03    0.222E-03
DAV:   5    -0.132558978589E+04   -0.93132E-08   -0.38674E-07 11198   0.355E-03    0.200E-03
DAV:   6    -0.132558978587E+04    0.21930E-07   -0.15137E-07  6664   0.203E-03
  36 F= -.14343838E+04 E0= -.14343317E+04  d E =-.912621E-06
 trial-energy change:   -0.000001  1 .order   -0.000001   -0.000002    0.000001
 step:   3.4804(harm=  3.4804)  dis= 0.00009  next Energy= -1434.383793 (dE=-0.735E-06)
 bond charge predicted
       N       E                     dE             d eps       ncg     rms          rms(c)
DAV:   1    -0.132558978520E+04    0.69261E-06   -0.15008E-04 11762   0.155E-02    0.163E-03
DAV:   2    -0.132558978545E+04   -0.25751E-06   -0.16197E-06 13400   0.536E-03    0.459E-03
DAV:   3    -0.132558978531E+04    0.13761E-06   -0.75344E-07 12350   0.495E-03    0.739E-04
DAV:   4    -0.132558978533E+04   -0.18721E-07   -0.14253E-07  6260   0.172E-03    0.136E-03
DAV:   5    -0.132558978533E+04    0.71377E-08   -0.92225E-08  6074   0.149E-03    0.337E-04
DAV:   6    -0.132558978533E+04   -0.21464E-08   -0.42434E-08  6066   0.627E-04
  37 F= -.14343838E+04 E0= -.14343317E+04  d E =-.618241E-06
 curvature:  -2.47 expect dE=-0.257E-06 dE for cont linesearch -0.709E-07
 trial: gam= 0.07715 g(F)=  0.104E-06 g(S)=  0.000E+00 ort = 0.131E-06 (trialstep = 0.469E+01)
 search vector abs. value=  0.128E-06
 reached required accuracy - stopping structural energy minimisation
