NiAl                                    
            1
    14.500000    0.000000    0.000000
     0.000000   14.500000    0.000000
     0.000000    0.000000   14.500000
   Ni   Al   O 
   125   125     1
Direct configuration=     1
   0.00000000  0.00000000  0.00000000
   0.00000000  0.00000000  0.20000000
   0.00000000  0.00000000  0.40000000
   0.00000000  0.00000000  0.60000000
   0.00000000  0.00000000  0.80000000
   0.00000000  0.20000000  0.00000000
   0.00000000  0.20000000  0.20000000
   0.00000000  0.20000000  0.40000000
   0.00000000  0.20000000  0.60000000
   0.00000000  0.20000000  0.80000000
   0.00000000  0.40000000  0.00000000
   0.00000000  0.40000000  0.20000000
   0.00000000  0.40000000  0.40000000
   0.00000000  0.40000000  0.60000000
   0.00000000  0.40000000  0.80000000
   0.00000000  0.60000000  0.00000000
   0.00000000  0.60000000  0.20000000
   0.00000000  0.60000000  0.40000000
   0.00000000  0.60000000  0.60000000
   0.00000000  0.60000000  0.80000000
   0.00000000  0.80000000  0.00000000
   0.00000000  0.80000000  0.20000000
   0.00000000  0.80000000  0.40000000
   0.00000000  0.80000000  0.60000000
   0.00000000  0.80000000  0.80000000
   0.20000000  0.00000000  0.00000000
   0.20000000  0.00000000  0.20000000
   0.20000000  0.00000000  0.40000000
   0.20000000  0.00000000  0.60000000
   0.20000000  0.00000000  0.80000000
   0.20000000  0.20000000  0.00000000
   0.20000000  0.20000000  0.20000000
   0.20000000  0.20000000  0.40000000
   0.20000000  0.20000000  0.60000000
   0.20000000  0.20000000  0.80000000
   0.20000000  0.40000000  0.00000000
   0.20000000  0.40000000  0.20000000
   0.20000000  0.40000000  0.40000000
   0.20000000  0.40000000  0.60000000
   0.20000000  0.40000000  0.80000000
   0.20000000  0.60000000  0.00000000
   0.20000000  0.60000000  0.20000000
   0.20000000  0.60000000  0.40000000
   0.20000000  0.60000000  0.60000000
   0.20000000  0.60000000  0.80000000
   0.20000000  0.80000000  0.00000000
   0.20000000  0.80000000  0.20000000
   0.20000000  0.80000000  0.40000000
   0.20000000  0.80000000  0.60000000
   0.20000000  0.80000000  0.80000000
   0.40000000  0.00000000  0.00000000
   0.40000000  0.00000000  0.20000000
   0.40000000  0.00000000  0.40000000
   0.40000000  0.00000000  0.60000000
   0.40000000  0.00000000  0.80000000
   0.40000000  0.20000000  0.00000000
   0.40000000  0.20000000  0.20000000
   0.40000000  0.20000000  0.40000000
   0.40000000  0.20000000  0.60000000
   0.40000000  0.20000000  0.80000000
   0.40000000  0.40000000  0.00000000
   0.40000000  0.40000000  0.20000000
   0.40000000  0.40000000  0.40000000
   0.40000000  0.40000000  0.60000000
   0.40000000  0.40000000  0.80000000
   0.40000000  0.60000000  0.00000000
   0.40000000  0.60000000  0.20000000
   0.40000000  0.60000000  0.40000000
   0.40000000  0.60000000  0.60000000
   0.40000000  0.60000000  0.80000000
   0.40000000  0.80000000  0.00000000
   0.40000000  0.80000000  0.20000000
   0.40000000  0.80000000  0.40000000
   0.40000000  0.80000000  0.60000000
   0.40000000  0.80000000  0.80000000
   0.60000000  0.00000000  0.00000000
   0.60000000  0.00000000  0.20000000
   0.60000000  0.00000000  0.40000000
   0.60000000  0.00000000  0.60000000
   0.60000000  0.00000000  0.80000000
   0.60000000  0.20000000  0.00000000
   0.60000000  0.20000000  0.20000000
   0.60000000  0.20000000  0.40000000
   0.60000000  0.20000000  0.60000000
   0.60000000  0.20000000  0.80000000
   0.60000000  0.40000000  0.00000000
   0.60000000  0.40000000  0.20000000
   0.60000000  0.40000000  0.40000000
   0.60000000  0.40000000  0.60000000
   0.60000000  0.40000000  0.80000000
   0.60000000  0.60000000  0.00000000
   0.60000000  0.60000000  0.20000000
   0.60000000  0.60000000  0.40000000
   0.60000000  0.60000000  0.60000000
   0.60000000  0.60000000  0.80000000
   0.60000000  0.80000000  0.00000000
   0.60000000  0.80000000  0.20000000
   0.60000000  0.80000000  0.40000000
   0.60000000  0.80000000  0.60000000
   0.60000000  0.80000000  0.80000000
   0.80000000  0.00000000  0.00000000
   0.80000000  0.00000000  0.20000000
   0.80000000  0.00000000  0.40000000
   0.80000000  0.00000000  0.60000000
   0.80000000  0.00000000  0.80000000
   0.80000000  0.20000000  0.00000000
   0.80000000  0.20000000  0.20000000
   0.80000000  0.20000000  0.40000000
   0.80000000  0.20000000  0.60000000
   0.80000000  0.20000000  0.80000000
   0.80000000  0.40000000  0.00000000
   0.80000000  0.40000000  0.20000000
   0.80000000  0.40000000  0.40000000
   0.80000000  0.40000000  0.60000000
   0.80000000  0.40000000  0.80000000
   0.80000000  0.60000000  0.00000000
   0.80000000  0.60000000  0.20000000
   0.80000000  0.60000000  0.40000000
   0.80000000  0.60000000  0.60000000
   0.80000000  0.60000000  0.80000000
   0.80000000  0.80000000  0.00000000
   0.80000000  0.80000000  0.20000000
   0.80000000  0.80000000  0.40000000
   0.80000000  0.80000000  0.60000000
   0.80000000  0.80000000  0.80000000
   0.10000000  0.10000000  0.10000000
   0.10000000  0.10000000  0.30000000
   0.10000000  0.10000000  0.50000000
   0.10000000  0.10000000  0.70000000
   0.10000000  0.10000000  0.90000000
   0.10000000  0.30000000  0.10000000
   0.10000000  0.30000000  0.30000000
   0.10000000  0.30000000  0.50000000
   0.10000000  0.30000000  0.70000000
   0.10000000  0.30000000  0.90000000
   0.10000000  0.50000000  0.10000000
   0.10000000  0.50000000  0.30000000
   0.10000000  0.50000000  0.50000000
   0.10000000  0.50000000  0.70000000
   0.10000000  0.50000000  0.90000000
   0.10000000  0.70000000  0.10000000
   0.10000000  0.70000000  0.30000000
   0.10000000  0.70000000  0.50000000
   0.10000000  0.70000000  0.70000000
   0.10000000  0.70000000  0.90000000
   0.10000000  0.90000000  0.10000000
   0.10000000  0.90000000  0.30000000
   0.10000000  0.90000000  0.50000000
   0.10000000  0.90000000  0.70000000
   0.10000000  0.90000000  0.90000000
   0.30000000  0.10000000  0.10000000
   0.30000000  0.10000000  0.30000000
   0.30000000  0.10000000  0.50000000
   0.30000000  0.10000000  0.70000000
   0.30000000  0.10000000  0.90000000
   0.30000000  0.30000000  0.10000000
   0.30000000  0.30000000  0.30000000
   0.30000000  0.30000000  0.50000000
   0.30000000  0.30000000  0.70000000
   0.30000000  0.30000000  0.90000000
   0.30000000  0.50000000  0.10000000
   0.30000000  0.50000000  0.30000000
   0.30000000  0.50000000  0.50000000
   0.30000000  0.50000000  0.70000000
   0.30000000  0.50000000  0.90000000
   0.30000000  0.70000000  0.10000000
   0.30000000  0.70000000  0.30000000
   0.30000000  0.70000000  0.50000000
   0.30000000  0.70000000  0.70000000
   0.30000000  0.70000000  0.90000000
   0.30000000  0.90000000  0.10000000
   0.30000000  0.90000000  0.30000000
   0.30000000  0.90000000  0.50000000
   0.30000000  0.90000000  0.70000000
   0.30000000  0.90000000  0.90000000
   0.50000000  0.10000000  0.10000000
   0.50000000  0.10000000  0.30000000
   0.50000000  0.10000000  0.50000000
   0.50000000  0.10000000  0.70000000
   0.50000000  0.10000000  0.90000000
   0.50000000  0.30000000  0.10000000
   0.50000000  0.30000000  0.30000000
   0.50000000  0.30000000  0.50000000
   0.50000000  0.30000000  0.70000000
   0.50000000  0.30000000  0.90000000
   0.50000000  0.50000000  0.10000000
   0.50000000  0.50000000  0.30000000
   0.50000000  0.50000000  0.50000000
   0.50000000  0.50000000  0.70000000
   0.50000000  0.50000000  0.90000000
   0.50000000  0.70000000  0.10000000
   0.50000000  0.70000000  0.30000000
   0.50000000  0.70000000  0.50000000
   0.50000000  0.70000000  0.70000000
   0.50000000  0.70000000  0.90000000
   0.50000000  0.90000000  0.10000000
   0.50000000  0.90000000  0.30000000
   0.50000000  0.90000000  0.50000000
   0.50000000  0.90000000  0.70000000
   0.50000000  0.90000000  0.90000000
   0.70000000  0.10000000  0.10000000
   0.70000000  0.10000000  0.30000000
   0.70000000  0.10000000  0.50000000
   0.70000000  0.10000000  0.70000000
   0.70000000  0.10000000  0.90000000
   0.70000000  0.30000000  0.10000000
   0.70000000  0.30000000  0.30000000
   0.70000000  0.30000000  0.50000000
   0.70000000  0.30000000  0.70000000
   0.70000000  0.30000000  0.90000000
   0.70000000  0.50000000  0.10000000
   0.70000000  0.50000000  0.30000000
   0.70000000  0.50000000  0.50000000
   0.70000000  0.50000000  0.70000000
   0.70000000  0.50000000  0.90000000
   0.70000000  0.70000000  0.10000000
   0.70000000  0.70000000  0.30000000
   0.70000000  0.70000000  0.50000000
   0.70000000  0.70000000  0.70000000
   0.70000000  0.70000000  0.90000000
   0.70000000  0.90000000  0.10000000
   0.70000000  0.90000000  0.30000000
   0.70000000  0.90000000  0.50000000
   0.70000000  0.90000000  0.70000000
   0.70000000  0.90000000  0.90000000
   0.90000000  0.10000000  0.10000000
   0.90000000  0.10000000  0.30000000
   0.90000000  0.10000000  0.50000000
   0.90000000  0.10000000  0.70000000
   0.90000000  0.10000000  0.90000000
   0.90000000  0.30000000  0.10000000
   0.90000000  0.30000000  0.30000000
   0.90000000  0.30000000  0.50000000
   0.90000000  0.30000000  0.70000000
   0.90000000  0.30000000  0.90000000
   0.90000000  0.50000000  0.10000000
   0.90000000  0.50000000  0.30000000
   0.90000000  0.50000000  0.50000000
   0.90000000  0.50000000  0.70000000
   0.90000000  0.50000000  0.90000000
   0.90000000  0.70000000  0.10000000
   0.90000000  0.70000000  0.30000000
   0.90000000  0.70000000  0.50000000
   0.90000000  0.70000000  0.70000000
   0.90000000  0.70000000  0.90000000
   0.90000000  0.90000000  0.10000000
   0.90000000  0.90000000  0.30000000
   0.90000000  0.90000000  0.50000000
   0.90000000  0.90000000  0.70000000
   0.90000000  0.90000000  0.90000000
   0.10000000  0.10000000  0.00000000
Direct configuration=     2
  -0.00214578 -0.00214578  0.00000000
   0.00007645  0.00007645  0.19976051
   0.00000046  0.00000046  0.39994740
   0.00000046  0.00000046  0.60005260
   0.00007645  0.00007645  0.80023949
  -0.00214578  0.20214578  0.00000000
   0.00007645  0.19992355  0.19976051
   0.00000046  0.19999954  0.39994740
   0.00000046  0.19999954  0.60005260
   0.00007645  0.19992355  0.80023949
   0.00003207  0.40000164  0.00000000
  -0.00000921  0.39999563  0.19999620
   0.00000139  0.39999001  0.40000694
   0.00000139  0.39999001  0.59999306
  -0.00000921  0.39999563  0.80000380
   0.00000890  0.60000000  0.00000000
  -0.00000212  0.60000000  0.19999851
   0.00000921  0.60000000  0.39999921
   0.00000921  0.60000000  0.60000079
  -0.00000212  0.60000000  0.80000149
   0.00003207  0.79999836  0.00000000
  -0.00000921  0.80000437  0.19999620
   0.00000139  0.80000999  0.40000694
   0.00000139  0.80000999  0.59999306
  -0.00000921  0.80000437  0.80000380
   0.20214578 -0.00214578  0.00000000
   0.19992355  0.00007645  0.19976051
   0.19999954  0.00000046  0.39994740
   0.19999954  0.00000046  0.60005260
   0.19992355  0.00007645  0.80023949
   0.20214578  0.20214578  0.00000000
   0.19992355  0.19992355  0.19976051
   0.19999954  0.19999954  0.39994740
   0.19999954  0.19999954  0.60005260
   0.19992355  0.19992355  0.80023949
   0.19996793  0.40000164  0.00000000
   0.20000921  0.39999563  0.19999620
   0.19999861  0.39999001  0.40000694
   0.19999861  0.39999001  0.59999306
   0.20000921  0.39999563  0.80000380
   0.19999110  0.60000000  0.00000000
   0.20000212  0.60000000  0.19999851
   0.19999079  0.60000000  0.39999921
   0.19999079  0.60000000  0.60000079
   0.20000212  0.60000000  0.80000149
   0.19996793  0.79999836  0.00000000
   0.20000921  0.80000437  0.19999620
   0.19999861  0.80000999  0.40000694
   0.19999861  0.80000999  0.59999306
   0.20000921  0.80000437  0.80000380
   0.40000164  0.00003207  0.00000000
   0.39999563 -0.00000921  0.19999620
   0.39999001  0.00000139  0.40000694
   0.39999001  0.00000139  0.59999306
   0.39999563 -0.00000921  0.80000380
   0.40000164  0.19996793  0.00000000
   0.39999563  0.20000921  0.19999620
   0.39999001  0.19999861  0.40000694
   0.39999001  0.19999861  0.59999306
   0.39999563  0.20000921  0.80000380
   0.39997626  0.39997626  0.00000000
   0.40000578  0.40000578  0.20001144
   0.39999820  0.39999820  0.39998609
   0.39999820  0.39999820  0.60001391
   0.40000578  0.40000578  0.79998856
   0.39998483  0.60000000  0.00000000
   0.40000447  0.60000000  0.19999643
   0.39998714  0.60000000  0.40000346
   0.39998714  0.60000000  0.59999654
   0.40000447  0.60000000  0.80000357
   0.39997626  0.80002374  0.00000000
   0.40000578  0.79999422  0.20001144
   0.39999820  0.80000180  0.39998609
   0.39999820  0.80000180  0.60001391
   0.40000578  0.79999422  0.79998856
   0.60000000  0.00000890  0.00000000
   0.60000000 -0.00000212  0.19999851
   0.60000000  0.00000921  0.39999921
   0.60000000  0.00000921  0.60000079
   0.60000000 -0.00000212  0.80000149
   0.60000000  0.19999110  0.00000000
   0.60000000  0.20000212  0.19999851
   0.60000000  0.19999079  0.39999921
   0.60000000  0.19999079  0.60000079
   0.60000000  0.20000212  0.80000149
   0.60000000  0.39998483  0.00000000
   0.60000000  0.40000447  0.19999643
   0.60000000  0.39998714  0.40000346
   0.60000000  0.39998714  0.59999654
   0.60000000  0.40000447  0.80000357
   0.60000000  0.60000000  0.00000000
   0.60000000  0.60000000  0.19999562
   0.60000000  0.60000000  0.39998142
   0.60000000  0.60000000  0.60001858
   0.60000000  0.60000000  0.80000438
   0.60000000  0.80001517  0.00000000
   0.60000000  0.79999553  0.19999643
   0.60000000  0.80001286  0.40000346
   0.60000000  0.80001286  0.59999654
   0.60000000  0.79999553  0.80000357
   0.79999836  0.00003207  0.00000000
   0.80000437 -0.00000921  0.19999620
   0.80000999  0.00000139  0.40000694
   0.80000999  0.00000139  0.59999306
   0.80000437 -0.00000921  0.80000380
   0.79999836  0.19996793  0.00000000
   0.80000437  0.20000921  0.19999620
   0.80000999  0.19999861  0.40000694
   0.80000999  0.19999861  0.59999306
   0.80000437  0.20000921  0.80000380
   0.80002374  0.39997626  0.00000000
   0.79999422  0.40000578  0.20001144
   0.80000180  0.39999820  0.39998609
   0.80000180  0.39999820  0.60001391
   0.79999422  0.40000578  0.79998856
   0.80001517  0.60000000  0.00000000
   0.79999553  0.60000000  0.19999643
   0.80001286  0.60000000  0.40000346
   0.80001286  0.60000000  0.59999654
   0.79999553  0.60000000  0.80000357
   0.80002374  0.80002374  0.00000000
   0.79999422  0.79999422  0.20001144
   0.80000180  0.80000180  0.39998609
   0.80000180  0.80000180  0.60001391
   0.79999422  0.79999422  0.79998856
   0.10000000  0.10000000  0.12220279
   0.10000000  0.10000000  0.30011502
   0.10000000  0.10000000  0.50000000
   0.10000000  0.10000000  0.69988498
   0.10000000  0.10000000  0.87779721
   0.10000000  0.30036871  0.10025472
   0.10000000  0.30000031  0.29999845
   0.10000000  0.29999173  0.50000000
   0.10000000  0.30000031  0.70000155
   0.10000000  0.30036871  0.89974528
   0.10000000  0.49999678  0.09999673
   0.10000000  0.50000426  0.29998734
   0.10000000  0.50000308  0.50000000
   0.10000000  0.50000426  0.70001266
   0.10000000  0.49999678  0.90000327
   0.10000000  0.70000322  0.09999673
   0.10000000  0.69999574  0.29998734
   0.10000000  0.69999692  0.50000000
   0.10000000  0.69999574  0.70001266
   0.10000000  0.70000322  0.90000327
   0.10000000  0.89963129  0.10025472
   0.10000000  0.89999969  0.29999845
   0.10000000  0.90000827  0.50000000
   0.10000000  0.89999969  0.70000155
   0.10000000  0.89963129  0.89974528
   0.30036871  0.10000000  0.10025472
   0.30000031  0.10000000  0.29999845
   0.29999173  0.10000000  0.50000000
   0.30000031  0.10000000  0.70000155
   0.30036871  0.10000000  0.89974528
   0.29998461  0.29998461  0.09992436
   0.30001388  0.30001388  0.30001341
   0.30000266  0.30000266  0.50000000
   0.30001388  0.30001388  0.69998659
   0.29998461  0.29998461  0.90007564
   0.29999012  0.49999179  0.09999130
   0.30000122  0.50000220  0.30001005
   0.30000519  0.50000822  0.50000000
   0.30000122  0.50000220  0.69998995
   0.29999012  0.49999179  0.90000870
   0.29999012  0.70000821  0.09999130
   0.30000122  0.69999780  0.30001005
   0.30000519  0.69999178  0.50000000
   0.30000122  0.69999780  0.69998995
   0.29999012  0.70000821  0.90000870
   0.29998461  0.90001539  0.09992436
   0.30001388  0.89998612  0.30001341
   0.30000266  0.89999734  0.50000000
   0.30001388  0.89998612  0.69998659
   0.29998461  0.90001539  0.90007564
   0.49999678  0.10000000  0.09999673
   0.50000426  0.10000000  0.29998734
   0.50000308  0.10000000  0.50000000
   0.50000426  0.10000000  0.70001266
   0.49999678  0.10000000  0.90000327
   0.49999179  0.29999012  0.09999130
   0.50000220  0.30000122  0.30001005
   0.50000822  0.30000519  0.50000000
   0.50000220  0.30000122  0.69998995
   0.49999179  0.29999012  0.90000870
   0.50000049  0.50000049  0.09998358
   0.50000297  0.50000297  0.30001622
   0.50000051  0.50000051  0.50000000
   0.50000297  0.50000297  0.69998378
   0.50000049  0.50000049  0.90001642
   0.50000049  0.69999951  0.09998358
   0.50000297  0.69999703  0.30001622
   0.50000051  0.69999949  0.50000000
   0.50000297  0.69999703  0.69998378
   0.50000049  0.69999951  0.90001642
   0.49999179  0.90000988  0.09999130
   0.50000220  0.89999878  0.30001005
   0.50000822  0.89999481  0.50000000
   0.50000220  0.89999878  0.69998995
   0.49999179  0.90000988  0.90000870
   0.70000322  0.10000000  0.09999673
   0.69999574  0.10000000  0.29998734
   0.69999692  0.10000000  0.50000000
   0.69999574  0.10000000  0.70001266
   0.70000322  0.10000000  0.90000327
   0.70000821  0.29999012  0.09999130
   0.69999780  0.30000122  0.30001005
   0.69999178  0.30000519  0.50000000
   0.69999780  0.30000122  0.69998995
   0.70000821  0.29999012  0.90000870
   0.69999951  0.50000049  0.09998358
   0.69999703  0.50000297  0.30001622
   0.69999949  0.50000051  0.50000000
   0.69999703  0.50000297  0.69998378
   0.69999951  0.50000049  0.90001642
   0.69999951  0.69999951  0.09998358
   0.69999703  0.69999703  0.30001622
   0.69999949  0.69999949  0.50000000
   0.69999703  0.69999703  0.69998378
   0.69999951  0.69999951  0.90001642
   0.70000821  0.90000988  0.09999130
   0.69999780  0.89999878  0.30001005
   0.69999178  0.89999481  0.50000000
   0.69999780  0.89999878  0.69998995
   0.70000821  0.90000988  0.90000870
   0.89963129  0.10000000  0.10025472
   0.89999969  0.10000000  0.29999845
   0.90000827  0.10000000  0.50000000
   0.89999969  0.10000000  0.70000155
   0.89963129  0.10000000  0.89974528
   0.90001539  0.29998461  0.09992436
   0.89998612  0.30001388  0.30001341
   0.89999734  0.30000266  0.50000000
   0.89998612  0.30001388  0.69998659
   0.90001539  0.29998461  0.90007564
   0.90000988  0.49999179  0.09999130
   0.89999878  0.50000220  0.30001005
   0.89999481  0.50000822  0.50000000
   0.89999878  0.50000220  0.69998995
   0.90000988  0.49999179  0.90000870
   0.90000988  0.70000821  0.09999130
   0.89999878  0.69999780  0.30001005
   0.89999481  0.69999178  0.50000000
   0.89999878  0.69999780  0.69998995
   0.90000988  0.70000821  0.90000870
   0.90001539  0.90001539  0.09992436
   0.89998612  0.89998612  0.30001341
   0.89999734  0.89999734  0.50000000
   0.89998612  0.89998612  0.69998659
   0.90001539  0.90001539  0.90007564
   0.10000000  0.10000000  0.00000000
Direct configuration=     3
  -0.00202412 -0.00202412  0.00000000
   0.00007212  0.00007212  0.19977409
   0.00000043  0.00000043  0.39995038
   0.00000043  0.00000043  0.60004962
   0.00007212  0.00007212  0.80022591
  -0.00202412  0.20202412  0.00000000
   0.00007212  0.19992788  0.19977409
   0.00000043  0.19999957  0.39995038
   0.00000043  0.19999957  0.60004962
   0.00007212  0.19992788  0.80022591
   0.00003025  0.40000155  0.00000000
  -0.00000869  0.39999587  0.19999642
   0.00000131  0.39999057  0.40000654
   0.00000131  0.39999057  0.59999346
  -0.00000869  0.39999587  0.80000358
   0.00000840  0.60000000  0.00000000
  -0.00000200  0.60000000  0.19999859
   0.00000869  0.60000000  0.39999926
   0.00000869  0.60000000  0.60000074
  -0.00000200  0.60000000  0.80000141
   0.00003025  0.79999845  0.00000000
  -0.00000869  0.80000413  0.19999642
   0.00000131  0.80000943  0.40000654
   0.00000131  0.80000943  0.59999346
  -0.00000869  0.80000413  0.80000358
   0.20202412 -0.00202412  0.00000000
   0.19992788  0.00007212  0.19977409
   0.19999957  0.00000043  0.39995038
   0.19999957  0.00000043  0.60004962
   0.19992788  0.00007212  0.80022591
   0.20202412  0.20202412  0.00000000
   0.19992788  0.19992788  0.19977409
   0.19999957  0.19999957  0.39995038
   0.19999957  0.19999957  0.60004962
   0.19992788  0.19992788  0.80022591
   0.19996975  0.40000155  0.00000000
   0.20000869  0.39999587  0.19999642
   0.19999869  0.39999057  0.40000654
   0.19999869  0.39999057  0.59999346
   0.20000869  0.39999587  0.80000358
   0.19999160  0.60000000  0.00000000
   0.20000200  0.60000000  0.19999859
   0.19999131  0.60000000  0.39999926
   0.19999131  0.60000000  0.60000074
   0.20000200  0.60000000  0.80000141
   0.19996975  0.79999845  0.00000000
   0.20000869  0.80000413  0.19999642
   0.19999869  0.80000943  0.40000654
   0.19999869  0.80000943  0.59999346
   0.20000869  0.80000413  0.80000358
   0.40000155  0.00003025  0.00000000
   0.39999587 -0.00000869  0.19999642
   0.39999057  0.00000131  0.40000654
   0.39999057  0.00000131  0.59999346
   0.39999587 -0.00000869  0.80000358
   0.40000155  0.19996975  0.00000000
   0.39999587  0.20000869  0.19999642
   0.39999057  0.19999869  0.40000654
   0.39999057  0.19999869  0.59999346
   0.39999587  0.20000869  0.80000358
   0.39997761  0.39997761  0.00000000
   0.40000545  0.40000545  0.20001079
   0.39999830  0.39999830  0.39998688
   0.39999830  0.39999830  0.60001312
   0.40000545  0.40000545  0.79998921
   0.39998569  0.60000000  0.00000000
   0.40000421  0.60000000  0.19999663
   0.39998787  0.60000000  0.40000327
   0.39998787  0.60000000  0.59999673
   0.40000421  0.60000000  0.80000337
   0.39997761  0.80002239  0.00000000
   0.40000545  0.79999455  0.20001079
   0.39999830  0.80000170  0.39998688
   0.39999830  0.80000170  0.60001312
   0.40000545  0.79999455  0.79998921
   0.60000000  0.00000840  0.00000000
   0.60000000 -0.00000200  0.19999859
   0.60000000  0.00000869  0.39999926
   0.60000000  0.00000869  0.60000074
   0.60000000 -0.00000200  0.80000141
   0.60000000  0.19999160  0.00000000
   0.60000000  0.20000200  0.19999859
   0.60000000  0.19999131  0.39999926
   0.60000000  0.19999131  0.60000074
   0.60000000  0.20000200  0.80000141
   0.60000000  0.39998569  0.00000000
   0.60000000  0.40000421  0.19999663
   0.60000000  0.39998787  0.40000327
   0.60000000  0.39998787  0.59999673
   0.60000000  0.40000421  0.80000337
   0.60000000  0.60000000  0.00000000
   0.60000000  0.60000000  0.19999587
   0.60000000  0.60000000  0.39998247
   0.60000000  0.60000000  0.60001753
   0.60000000  0.60000000  0.80000413
   0.60000000  0.80001431  0.00000000
   0.60000000  0.79999579  0.19999663
   0.60000000  0.80001213  0.40000327
   0.60000000  0.80001213  0.59999673
   0.60000000  0.79999579  0.80000337
   0.79999845  0.00003025  0.00000000
   0.80000413 -0.00000869  0.19999642
   0.80000943  0.00000131  0.40000654
   0.80000943  0.00000131  0.59999346
   0.80000413 -0.00000869  0.80000358
   0.79999845  0.19996975  0.00000000
   0.80000413  0.20000869  0.19999642
   0.80000943  0.19999869  0.40000654
   0.80000943  0.19999869  0.59999346
   0.80000413  0.20000869  0.80000358
   0.80002239  0.39997761  0.00000000
   0.79999455  0.40000545  0.20001079
   0.80000170  0.39999830  0.39998688
   0.80000170  0.39999830  0.60001312
   0.79999455  0.40000545  0.79998921
   0.80001431  0.60000000  0.00000000
   0.79999579  0.60000000  0.19999663
   0.80001213  0.60000000  0.40000327
   0.80001213  0.60000000  0.59999673
   0.79999579  0.60000000  0.80000337
   0.80002239  0.80002239  0.00000000
   0.79999455  0.79999455  0.20001079
   0.80000170  0.80000170  0.39998688
   0.80000170  0.80000170  0.60001312
   0.79999455  0.79999455  0.79998921
   0.10000000  0.10000000  0.12094391
   0.10000000  0.10000000  0.30010850
   0.10000000  0.10000000  0.50000000
   0.10000000  0.10000000  0.69989150
   0.10000000  0.10000000  0.87905609
   0.10000000  0.30034781  0.10024028
   0.10000000  0.30000030  0.29999853
   0.10000000  0.29999220  0.50000000
   0.10000000  0.30000030  0.70000147
   0.10000000  0.30034781  0.89975972
   0.10000000  0.49999697  0.09999691
   0.10000000  0.50000402  0.29998805
   0.10000000  0.50000291  0.50000000
   0.10000000  0.50000402  0.70001195
   0.10000000  0.49999697  0.90000309
   0.10000000  0.70000303  0.09999691
   0.10000000  0.69999598  0.29998805
   0.10000000  0.69999709  0.50000000
   0.10000000  0.69999598  0.70001195
   0.10000000  0.70000303  0.90000309
   0.10000000  0.89965219  0.10024028
   0.10000000  0.89999970  0.29999853
   0.10000000  0.90000780  0.50000000
   0.10000000  0.89999970  0.70000147
   0.10000000  0.89965219  0.89975972
   0.30034781  0.10000000  0.10024028
   0.30000030  0.10000000  0.29999853
   0.29999220  0.10000000  0.50000000
   0.30000030  0.10000000  0.70000147
   0.30034781  0.10000000  0.89975972
   0.29998549  0.29998549  0.09992865
   0.30001310  0.30001310  0.30001265
   0.30000251  0.30000251  0.50000000
   0.30001310  0.30001310  0.69998735
   0.29998549  0.29998549  0.90007135
   0.29999068  0.49999225  0.09999179
   0.30000115  0.50000207  0.30000948
   0.30000490  0.50000775  0.50000000
   0.30000115  0.50000207  0.69999052
   0.29999068  0.49999225  0.90000821
   0.29999068  0.70000775  0.09999179
   0.30000115  0.69999793  0.30000948
   0.30000490  0.69999225  0.50000000
   0.30000115  0.69999793  0.69999052
   0.29999068  0.70000775  0.90000821
   0.29998549  0.90001451  0.09992865
   0.30001310  0.89998690  0.30001265
   0.30000251  0.89999749  0.50000000
   0.30001310  0.89998690  0.69998735
   0.29998549  0.90001451  0.90007135
   0.49999697  0.10000000  0.09999691
   0.50000402  0.10000000  0.29998805
   0.50000291  0.10000000  0.50000000
   0.50000402  0.10000000  0.70001195
   0.49999697  0.10000000  0.90000309
   0.49999225  0.29999068  0.09999179
   0.50000207  0.30000115  0.30000948
   0.50000775  0.30000490  0.50000000
   0.50000207  0.30000115  0.69999052
   0.49999225  0.29999068  0.90000821
   0.50000046  0.50000046  0.09998451
   0.50000280  0.50000280  0.30001530
   0.50000048  0.50000048  0.50000000
   0.50000280  0.50000280  0.69998470
   0.50000046  0.50000046  0.90001549
   0.50000046  0.69999954  0.09998451
   0.50000280  0.69999720  0.30001530
   0.50000048  0.69999952  0.50000000
   0.50000280  0.69999720  0.69998470
   0.50000046  0.69999954  0.90001549
   0.49999225  0.90000932  0.09999179
   0.50000207  0.89999885  0.30000948
   0.50000775  0.89999510  0.50000000
   0.50000207  0.89999885  0.69999052
   0.49999225  0.90000932  0.90000821
   0.70000303  0.10000000  0.09999691
   0.69999598  0.10000000  0.29998805
   0.69999709  0.10000000  0.50000000
   0.69999598  0.10000000  0.70001195
   0.70000303  0.10000000  0.90000309
   0.70000775  0.29999068  0.09999179
   0.69999793  0.30000115  0.30000948
   0.69999225  0.30000490  0.50000000
   0.69999793  0.30000115  0.69999052
   0.70000775  0.29999068  0.90000821
   0.69999954  0.50000046  0.09998451
   0.69999720  0.50000280  0.30001530
   0.69999952  0.50000048  0.50000000
   0.69999720  0.50000280  0.69998470
   0.69999954  0.50000046  0.90001549
   0.69999954  0.69999954  0.09998451
   0.69999720  0.69999720  0.30001530
   0.69999952  0.69999952  0.50000000
   0.69999720  0.69999720  0.69998470
   0.69999954  0.69999954  0.90001549
   0.70000775  0.90000932  0.09999179
   0.69999793  0.89999885  0.30000948
   0.69999225  0.89999510  0.50000000
   0.69999793  0.89999885  0.69999052
   0.70000775  0.90000932  0.90000821
   0.89965219  0.10000000  0.10024028
   0.89999970  0.10000000  0.29999853
   0.90000780  0.10000000  0.50000000
   0.89999970  0.10000000  0.70000147
   0.89965219  0.10000000  0.89975972
   0.90001451  0.29998549  0.09992865
   0.89998690  0.30001310  0.30001265
   0.89999749  0.30000251  0.50000000
   0.89998690  0.30001310  0.69998735
   0.90001451  0.29998549  0.90007135
   0.90000932  0.49999225  0.09999179
   0.89999885  0.50000207  0.30000948
   0.89999510  0.50000775  0.50000000
   0.89999885  0.50000207  0.69999052
   0.90000932  0.49999225  0.90000821
   0.90000932  0.70000775  0.09999179
   0.89999885  0.69999793  0.30000948
   0.89999510  0.69999225  0.50000000
   0.89999885  0.69999793  0.69999052
   0.90000932  0.70000775  0.90000821
   0.90001451  0.90001451  0.09992865
   0.89998690  0.89998690  0.30001265
   0.89999749  0.89999749  0.50000000
   0.89998690  0.89998690  0.69998735
   0.90001451  0.90001451  0.90007135
   0.10000000  0.10000000  0.00000000
Direct configuration=     4
  -0.00205476 -0.00205476  0.00000000
   0.00007321  0.00007321  0.19977067
   0.00000044  0.00000044  0.39994963
   0.00000044  0.00000044  0.60005037
   0.00007321  0.00007321  0.80022933
  -0.00205476  0.20205476  0.00000000
   0.00007321  0.19992679  0.19977067
   0.00000044  0.19999956  0.39994963
   0.00000044  0.19999956  0.60005037
   0.00007321  0.19992679  0.80022933
   0.00003071  0.40000157  0.00000000
  -0.00000882  0.39999581  0.19999636
   0.00000133  0.39999043  0.40000664
   0.00000133  0.39999043  0.59999336
  -0.00000882  0.39999581  0.80000364
   0.00000852  0.60000000  0.00000000
  -0.00000203  0.60000000  0.19999857
   0.00000882  0.60000000  0.39999925
   0.00000882  0.60000000  0.60000075
  -0.00000203  0.60000000  0.80000143
   0.00003071  0.79999843  0.00000000
  -0.00000882  0.80000419  0.19999636
   0.00000133  0.80000957  0.40000664
   0.00000133  0.80000957  0.59999336
  -0.00000882  0.80000419  0.80000364
   0.20205476 -0.00205476  0.00000000
   0.19992679  0.00007321  0.19977067
   0.19999956  0.00000044  0.39994963