       N       E                     dE             d eps       ncg     rms          rms(c)
DAV:   1     0.687171424342E+04    0.68717E+04   -0.33831E+05  2948   0.923E+02
DAV:   2     0.372504082003E+03   -0.64992E+04   -0.61450E+04  4096   0.250E+02
DAV:   3    -0.101665578484E+04   -0.13892E+04   -0.12638E+04  4664   0.961E+01
DAV:   4    -0.126791037789E+04   -0.25125E+03   -0.18893E+03  4160   0.345E+01
DAV:   5    -0.134006218036E+04   -0.72152E+02   -0.48598E+02  4680   0.133E+01    0.118E+02
DAV:   6    -0.589561238576E+04   -0.45556E+04   -0.22148E+04  5142   0.165E+02    0.253E+02
DAV:   7    -0.132832859217E+04    0.45673E+04   -0.22192E+04  5109   0.108E+02    0.123E+02
DAV:   8    -0.135688143676E+04   -0.28553E+02   -0.43294E+03  4264   0.678E+01    0.947E+01
DAV:   9    -0.128265335632E+04    0.74228E+02   -0.51488E+02  4376   0.475E+01    0.661E+01
DAV:  10    -0.121983444335E+04    0.62819E+02   -0.42363E+02  4144   0.235E+01    0.520E+01
DAV:  11    -0.122360591673E+04   -0.37715E+01   -0.15843E+02  3928   0.104E+01    0.467E+01
DAV:  12    -0.121319683956E+04    0.10409E+02   -0.13481E+01  4496   0.462E+00    0.392E+01
DAV:  13    -0.120902476135E+04    0.41721E+01   -0.22662E+01  3912   0.828E+00    0.308E+01
DAV:  14    -0.119897257867E+04    0.10052E+02   -0.12851E+01  4208   0.790E+00    0.125E+01
DAV:  15    -0.119717318513E+04    0.17994E+01   -0.70762E+00  3560   0.332E+00    0.987E+00
DAV:  16    -0.119610122577E+04    0.10720E+01   -0.17328E+00  4048   0.183E+00    0.747E+00
DAV:  17    -0.119582227872E+04    0.27895E+00   -0.38951E-01  4136   0.114E+00    0.616E+00
DAV:  18    -0.119563137581E+04    0.19090E+00   -0.26611E-01  4152   0.935E-01    0.528E+00
DAV:  19    -0.119535577485E+04    0.27560E+00   -0.34905E-01  3736   0.932E-01    0.367E+00
DAV:  20    -0.119524698249E+04    0.10879E+00   -0.21872E-01  3960   0.617E-01    0.246E+00
DAV:  21    -0.119522645392E+04    0.20529E-01   -0.51580E-02  4272   0.345E-01    0.205E+00
DAV:  22    -0.119522807003E+04   -0.16161E-02   -0.17942E-02  4464   0.212E-01    0.156E+00
DAV:  23    -0.119519552364E+04    0.32546E-01   -0.90389E-02  3424   0.315E-01    0.663E-01
DAV:  24    -0.119519827057E+04   -0.27469E-02   -0.15490E-02  4208   0.138E-01    0.361E-01
DAV:  25    -0.119520066980E+04   -0.23992E-02   -0.25471E-03  3960   0.716E-02    0.199E-01
DAV:  26    -0.119520489838E+04   -0.42286E-02   -0.18045E-03  4096   0.634E-02    0.815E-02
DAV:  27    -0.119520711894E+04   -0.22206E-02   -0.10505E-03  3848   0.379E-02    0.689E-02
DAV:  28    -0.119520860764E+04   -0.14887E-02   -0.15593E-04  4152   0.156E-02    0.682E-02
DAV:  29    -0.119521029276E+04   -0.16851E-02   -0.99488E-05  3216   0.898E-03    0.520E-02
DAV:  30    -0.119521077402E+04   -0.48126E-03   -0.50977E-05  3168   0.752E-03    0.422E-02
DAV:  31    -0.119521092935E+04   -0.15532E-03   -0.22690E-05  2888   0.563E-03    0.338E-02
DAV:  32    -0.119521106301E+04   -0.13366E-03   -0.16813E-05  2616   0.533E-03    0.266E-02
DAV:  33    -0.119521113108E+04   -0.68066E-04   -0.10583E-05  2224   0.397E-03    0.239E-02
DAV:  34    -0.119521116500E+04   -0.33920E-04   -0.41951E-06  1824   0.293E-03    0.243E-02
DAV:  35    -0.119521119355E+04   -0.28552E-04   -0.24451E-06  1880   0.218E-03    0.239E-02
DAV:  36    -0.119521121135E+04   -0.17802E-04   -0.10962E-06  1752   0.138E-03    0.237E-02
DAV:  37    -0.119521121383E+04   -0.24810E-05   -0.52194E-07  1728   0.101E-03
   1 F= -.12761518E+04 E0= -.12760615E+04  d E =-.127615E+04
       N       E                     dE             d eps       ncg     rms          rms(c)
DAV:   1    -0.119554456450E+04   -0.33335E+00   -0.68053E+03  3084   0.124E+02    0.729E+01
DAV:   2    -0.180354965489E+04   -0.60801E+03   -0.92306E+02  4846   0.732E+01    0.107E+02
DAV:   3    -0.192875773880E+04   -0.12521E+03   -0.18234E+03  4148   0.798E+01    0.145E+02
DAV:   4    -0.121761465348E+04    0.71114E+03   -0.45336E+02  4280   0.416E+01    0.493E+01
DAV:   5    -0.122606959463E+04   -0.84549E+01   -0.29879E+02  4336   0.255E+01    0.298E+01
DAV:   6    -0.121977813813E+04    0.62915E+01   -0.83926E+01  3928   0.137E+01    0.172E+01
DAV:   7    -0.121778476241E+04    0.19934E+01   -0.21503E+01  4224   0.801E+00    0.169E+01
DAV:   8    -0.121608019147E+04    0.17046E+01   -0.94683E+00  4136   0.497E+00    0.115E+01
DAV:   9    -0.121630834317E+04   -0.22815E+00   -0.26371E+00  4776   0.294E+00    0.963E+00
DAV:  10    -0.121657464774E+04   -0.26630E+00   -0.11005E+00  4296   0.243E+00    0.809E+00
DAV:  11    -0.121636695254E+04    0.20770E+00   -0.16188E+00  4336   0.183E+00    0.602E+00
DAV:  12    -0.121626983464E+04    0.97118E-01   -0.60061E-01  4336   0.149E+00    0.428E+00
DAV:  13    -0.121622392245E+04    0.45912E-01   -0.17317E-01  3880   0.539E-01    0.355E+00
DAV:  14    -0.121621599005E+04    0.79324E-02   -0.63979E-02  4592   0.407E-01    0.304E+00
DAV:  15    -0.121616183951E+04    0.54151E-01   -0.37023E-02  3960   0.303E-01    0.226E+00
DAV:  16    -0.121614873586E+04    0.13104E-01   -0.46220E-02  4080   0.286E-01    0.156E+00
DAV:  17    -0.121613658668E+04    0.12149E-01   -0.26617E-02  4200   0.256E-01    0.878E-01
DAV:  18    -0.121613261493E+04    0.39718E-02   -0.15990E-02  4032   0.170E-01    0.435E-01
DAV:  19    -0.121613574048E+04   -0.31256E-02   -0.57288E-03  3992   0.112E-01    0.491E-01
DAV:  20    -0.121613497797E+04    0.76251E-03   -0.68215E-04  3856   0.360E-02    0.419E-01
DAV:  21    -0.121613493224E+04    0.45730E-04   -0.22980E-04  4024   0.224E-02    0.353E-01
DAV:  22    -0.121613463660E+04    0.29564E-03   -0.81656E-04  4008   0.585E-02    0.154E-01
DAV:  23    -0.121613462105E+04    0.15549E-04   -0.79436E-04  3936   0.339E-02    0.637E-02
DAV:  24    -0.121613469287E+04   -0.71822E-04   -0.21728E-04  3912   0.173E-02    0.794E-02
DAV:  25    -0.121613465350E+04    0.39370E-04   -0.26698E-05  2784   0.877E-03    0.480E-02
DAV:  26    -0.121613460149E+04    0.52010E-04   -0.64220E-05  3688   0.119E-02    0.256E-02
DAV:  27    -0.121613458769E+04    0.13802E-04   -0.11470E-05  2088   0.559E-03    0.228E-02
DAV:  28    -0.121613456728E+04    0.20407E-04   -0.31117E-06  1920   0.295E-03    0.250E-02
DAV:  29    -0.121613454191E+04    0.25375E-04   -0.26953E-06  1904   0.216E-03    0.230E-02
DAV:  30    -0.121613449535E+04    0.46562E-04   -0.61266E-06  1896   0.282E-03    0.217E-02
DAV:  31    -0.121613447244E+04    0.22907E-04   -0.19804E-06  1872   0.181E-03    0.221E-02
DAV:  32    -0.121613446046E+04    0.11975E-04   -0.12424E-06  1872   0.134E-03    0.212E-02
DAV:  33    -0.121613444526E+04    0.15201E-04   -0.79298E-07  1872   0.110E-03    0.205E-02
DAV:  34    -0.121613443775E+04    0.75140E-05   -0.35738E-07  1848   0.860E-04    0.204E-02
DAV:  35    -0.121613443292E+04    0.48309E-05   -0.13487E-07  1824   0.583E-04
   2 F= -.12972711E+04 E0= -.12971503E+04  d E =-.211193E+02
       N       E                     dE             d eps       ncg     rms          rms(c)
DAV:   1    -0.121650992540E+04   -0.37549E+00   -0.97559E+02  3108   0.454E+01    0.236E+01
DAV:   2    -0.126689313913E+04   -0.50383E+02   -0.57529E+01  4463   0.200E+01    0.467E+01
DAV:   3    -0.128994268170E+04   -0.23050E+02   -0.36180E+01  4111   0.242E+01    0.556E+01
DAV:   4    -0.121637454630E+04    0.73568E+02   -0.32819E+01  4464   0.173E+01    0.114E+01
DAV:   5    -0.121935843459E+04   -0.29839E+01   -0.25534E+01  3799   0.640E+00    0.739E+00
DAV:   6    -0.121790648161E+04    0.14520E+01   -0.39524E+00  3792   0.367E+00    0.578E+00
DAV:   7    -0.121783516313E+04    0.71318E-01   -0.81619E-01  3912   0.147E+00    0.473E+00
DAV:   8    -0.121783891139E+04   -0.37483E-02   -0.30721E-01  4136   0.103E+00    0.282E+00
DAV:   9    -0.121788592553E+04   -0.47014E-01   -0.98232E-02  3864   0.696E-01    0.174E+00
DAV:  10    -0.121787981546E+04    0.61101E-02   -0.59166E-02  4320   0.769E-01    0.183E+00
DAV:  11    -0.121786267338E+04    0.17142E-01   -0.26026E-02  4368   0.491E-01    0.151E+00
DAV:  12    -0.121786159420E+04    0.10792E-02   -0.11911E-02  3784   0.196E-01    0.134E+00
DAV:  13    -0.121785148561E+04    0.10109E-01   -0.11625E-02  4384   0.179E-01    0.560E-01
DAV:  14    -0.121785094435E+04    0.54125E-03   -0.64626E-03  3864   0.125E-01    0.178E-01
DAV:  15    -0.121785221619E+04   -0.12718E-02   -0.20058E-03  3664   0.540E-02    0.196E-01
DAV:  16    -0.121785213372E+04    0.82467E-04   -0.18498E-04  3888   0.173E-02    0.157E-01
DAV:  17    -0.121785226506E+04   -0.13133E-03   -0.12438E-04  3968   0.179E-02    0.145E-01
DAV:  18    -0.121785216308E+04    0.10198E-03   -0.22623E-04  4000   0.236E-02    0.280E-02
DAV:  19    -0.121785221243E+04   -0.49354E-04   -0.55590E-05  3272   0.848E-03    0.256E-02
DAV:  20    -0.121785221946E+04   -0.70271E-05   -0.18855E-06  1888   0.201E-03    0.245E-02
DAV:  21    -0.121785226266E+04   -0.43200E-04   -0.25951E-06  1848   0.297E-03    0.245E-02
DAV:  22    -0.121785230482E+04   -0.42161E-04   -0.32727E-06  1824   0.224E-03    0.227E-02
DAV:  23    -0.121785233139E+04   -0.26573E-04   -0.13967E-06  1752   0.144E-03    0.224E-02
DAV:  24    -0.121785236955E+04   -0.38160E-04   -0.11538E-06  1744   0.140E-03    0.222E-02
DAV:  25    -0.121785237647E+04   -0.69223E-05   -0.35800E-07  1720   0.798E-04    0.222E-02
DAV:  26    -0.121785240186E+04   -0.25387E-04   -0.28210E-07  1704   0.652E-04    0.221E-02
DAV:  27    -0.121785240882E+04   -0.69613E-05   -0.11554E-07  1696   0.463E-04    0.221E-02
DAV:  28    -0.121785241123E+04   -0.24102E-05   -0.77538E-08  1656   0.356E-04
   3 F= -.12989192E+04 E0= -.12988159E+04  d E =-.227674E+02
       N       E                     dE             d eps       ncg     rms          rms(c)
DAV:   1    -0.121795722850E+04   -0.10482E+00   -0.63298E+01  3134   0.112E+01    0.651E+00
DAV:   2    -0.122965914465E+04   -0.11702E+02   -0.72102E+00  4655   0.779E+00    0.276E+01
DAV:   3    -0.122274558074E+04    0.69136E+01   -0.17769E+01  4376   0.917E+00    0.172E+01
DAV:   4    -0.121761581601E+04    0.51298E+01   -0.50425E+00  4144   0.430E+00    0.174E+00
DAV:   5    -0.121795320797E+04   -0.33739E+00   -0.12335E+00  3784   0.139E+00    0.178E+00
DAV:   6    -0.121793190542E+04    0.21303E-01   -0.11830E-01  3960   0.844E-01    0.113E+00
DAV:   7    -0.121791993526E+04    0.11970E-01   -0.31481E-02  3784   0.386E-01    0.822E-01
DAV:   8    -0.121792242457E+04   -0.24893E-02   -0.13476E-02  3944   0.244E-01    0.725E-01
DAV:   9    -0.121792684545E+04   -0.44209E-02   -0.15222E-02  4160   0.267E-01    0.427E-01
DAV:  10    -0.121792709597E+04   -0.25052E-03   -0.83045E-03  4160   0.212E-01    0.466E-01
DAV:  11    -0.121792613254E+04    0.96343E-03   -0.29695E-03  4048   0.107E-01    0.353E-01
DAV:  12    -0.121792552379E+04    0.60875E-03   -0.95290E-04  4136   0.627E-02    0.241E-01
DAV:  13    -0.121792525219E+04    0.27160E-03   -0.88692E-04  4024   0.511E-02    0.115E-01
DAV:  14    -0.121792528750E+04   -0.35309E-04   -0.31567E-04  3616   0.228E-02    0.840E-02
DAV:  15    -0.121792522455E+04    0.62943E-04   -0.80024E-05  3752   0.146E-02    0.535E-02
DAV:  16    -0.121792522896E+04   -0.44049E-05   -0.59000E-05  3928   0.121E-02    0.264E-02
DAV:  17    -0.121792522296E+04    0.59956E-05   -0.88284E-06  1960   0.417E-03    0.222E-02
DAV:  18    -0.121792521871E+04    0.42532E-05   -0.24982E-06  1776   0.223E-03
   4 F= -.12990094E+04 E0= -.12989021E+04  d E =-.228575E+02
       N       E                     dE             d eps       ncg     rms          rms(c)
DAV:   1    -0.121795143721E+04   -0.26214E-01   -0.48328E+00  3126   0.312E+00    0.187E+00
DAV:   2    -0.121910994809E+04   -0.11585E+01   -0.36622E+00  4871   0.224E+00    0.102E+01
DAV:   3    -0.121817174136E+04    0.93821E+00   -0.60964E+00  4352   0.250E+00    0.406E+00
DAV:   4    -0.121793141120E+04    0.24033E+00   -0.48854E-01  4072   0.131E+00    0.528E-01
DAV:   5    -0.121798407713E+04   -0.52666E-01   -0.11372E-01  3800   0.582E-01    0.709E-01
DAV:   6    -0.121794762909E+04    0.36448E-01   -0.28053E-02  3832   0.395E-01    0.301E-01
DAV:   7    -0.121794824583E+04   -0.61674E-03   -0.44691E-03  3472   0.106E-01    0.267E-01
DAV:   8    -0.121794828500E+04   -0.39164E-04   -0.75157E-04  4120   0.551E-02    0.215E-01
DAV:   9    -0.121794894276E+04   -0.65776E-03   -0.62512E-04  3688   0.577E-02    0.136E-01
DAV:  10    -0.121794895891E+04   -0.16152E-04   -0.45095E-04  4144   0.601E-02    0.131E-01
DAV:  11    -0.121794895060E+04    0.83084E-05   -0.14698E-04  4032   0.314E-02    0.912E-02
DAV:  12    -0.121794892442E+04    0.26181E-04   -0.64235E-05  3744   0.148E-02    0.632E-02
DAV:  13    -0.121794892077E+04    0.36465E-05   -0.40397E-05  3232   0.983E-03
   5 F= -.12990283E+04 E0= -.12989220E+04  d E =-.228764E+02
       N       E                     dE             d eps       ncg     rms          rms(c)
DAV:   1    -0.122227744712E+04   -0.43285E+01   -0.52287E+02  3084   0.340E+01    0.140E+01
DAV:   2    -0.123338299475E+04   -0.11106E+02   -0.32652E+01  4448   0.107E+01    0.257E+01
DAV:   3    -0.125127790020E+04   -0.17895E+02   -0.19078E+01  4112   0.143E+01    0.347E+01
DAV:   4    -0.122282561986E+04    0.28452E+02   -0.68018E+00  4296   0.104E+01    0.839E+00
DAV:   5    -0.122382519311E+04   -0.99957E+00   -0.70966E+00  3776   0.386E+00    0.603E+00
DAV:   6    -0.122320015849E+04    0.62503E+00   -0.11028E+00  3600   0.209E+00    0.410E+00
DAV:   7    -0.122322264713E+04   -0.22489E-01   -0.26902E-01  3718   0.755E-01    0.316E+00
DAV:   8    -0.122318871472E+04    0.33932E-01   -0.13213E-01  4216   0.878E-01    0.261E+00
DAV:   9    -0.122319255439E+04   -0.38397E-02   -0.18444E-01  4095   0.810E-01    0.192E+00
DAV:  10    -0.122315735769E+04    0.35197E-01   -0.99832E-02  3976   0.565E-01    0.886E-01
DAV:  11    -0.122316345835E+04   -0.61007E-02   -0.16557E-02  3848   0.334E-01    0.982E-01
DAV:  12    -0.122315896135E+04    0.44970E-02   -0.48178E-03  4016   0.211E-01    0.683E-01
DAV:  13    -0.122315739217E+04    0.15692E-02   -0.44900E-03  4104   0.150E-01    0.322E-01
DAV:  14    -0.122315703634E+04    0.35583E-03   -0.49891E-03  3815   0.108E-01    0.132E-01
DAV:  15    -0.122315718649E+04   -0.15015E-03   -0.12231E-03  3488   0.467E-02    0.973E-02
DAV:  16    -0.122315714201E+04    0.44479E-04   -0.19727E-04  3784   0.236E-02    0.328E-02
DAV:  17    -0.122315716804E+04   -0.26026E-04   -0.39175E-05  3408   0.835E-03    0.257E-02
DAV:  18    -0.122315718699E+04   -0.18950E-04   -0.66003E-06  1904   0.440E-03    0.208E-02
DAV:  19    -0.122315720839E+04   -0.21404E-04   -0.26468E-06  1784   0.286E-03    0.207E-02
DAV:  20    -0.122315723202E+04   -0.23627E-04   -0.16229E-06  1744   0.191E-03    0.196E-02
DAV:  21    -0.122315724571E+04   -0.13692E-04   -0.86395E-07  1680   0.133E-03    0.194E-02
DAV:  22    -0.122315726437E+04   -0.18653E-04   -0.72477E-07  1664   0.112E-03    0.194E-02
DAV:  23    -0.122315727437E+04   -0.10004E-04   -0.31646E-07  1656   0.836E-04    0.194E-02
DAV:  24    -0.122315729364E+04   -0.19271E-04   -0.32231E-07  1648   0.663E-04    0.194E-02
DAV:  25    -0.122315729776E+04   -0.41212E-05   -0.13448E-07  1584   0.478E-04
   6 F= -.13041776E+04 E0= -.13040760E+04  d E =-.514929E+01
       N       E                     dE             d eps       ncg     rms          rms(c)
DAV:   1    -0.122253155745E+04    0.62574E+00   -0.47693E+03  3084   0.106E+02    0.513E+01
DAV:   2    -0.127343286477E+04   -0.50901E+02   -0.22134E+02  3976   0.300E+01    0.548E+01
DAV:   3    -0.136246724181E+04   -0.89034E+02   -0.81305E+01  3888   0.347E+01    0.583E+01
DAV:   4    -0.129774506624E+04    0.64722E+02   -0.70483E+01  4111   0.320E+01    0.498E+01
DAV:   5    -0.123763869203E+04    0.60106E+02   -0.85347E+01  4471   0.183E+01    0.158E+01
DAV:   6    -0.123625640453E+04    0.13823E+01   -0.29520E+01  3792   0.736E+00    0.125E+01
DAV:   7    -0.123697089195E+04   -0.71449E+00   -0.83381E+00  4224   0.386E+00    0.957E+00
DAV:   8    -0.123647033852E+04    0.50055E+00   -0.21234E+00  4248   0.284E+00    0.935E+00
DAV:   9    -0.123644420137E+04    0.26137E-01   -0.22106E+00  4296   0.217E+00    0.654E+00
DAV:  10    -0.123642300050E+04    0.21201E-01   -0.25541E+00  4736   0.236E+00    0.630E+00
DAV:  11    -0.123606353724E+04    0.35946E+00   -0.90514E-01  4544   0.187E+00    0.204E+00
DAV:  12    -0.123606798134E+04   -0.44441E-02   -0.23394E-01  3976   0.724E-01    0.124E+00
DAV:  13    -0.123606733194E+04    0.64940E-03   -0.54120E-02  4240   0.298E-01    0.905E-01
DAV:  14    -0.123606322562E+04    0.41063E-02   -0.31064E-02  3808   0.276E-01    0.594E-01
DAV:  15    -0.123606085661E+04    0.23690E-02   -0.10877E-02  4432   0.150E-01    0.369E-01
DAV:  16    -0.123606179509E+04   -0.93848E-03   -0.28926E-03  3864   0.629E-02    0.246E-01
DAV:  17    -0.123606192011E+04   -0.12501E-03   -0.57347E-04  4424   0.358E-02    0.177E-01
DAV:  18    -0.123606214358E+04   -0.22348E-03   -0.56540E-04  3584   0.325E-02    0.746E-02
DAV:  19    -0.123606229211E+04   -0.14853E-03   -0.18033E-04  4008   0.203E-02    0.303E-02
DAV:  20    -0.123606238941E+04   -0.97302E-04   -0.39196E-05  3784   0.767E-03    0.280E-02
DAV:  21    -0.123606245895E+04   -0.69540E-04   -0.73159E-06  2200   0.395E-03    0.211E-02
DAV:  22    -0.123606257824E+04   -0.11928E-03   -0.71243E-06  2136   0.423E-03    0.159E-02
DAV:  23    -0.123606261809E+04   -0.39851E-04   -0.27173E-06  2007   0.235E-03    0.140E-02
DAV:  24    -0.123606270548E+04   -0.87388E-04   -0.30677E-06  1984   0.218E-03    0.138E-02
DAV:  25    -0.123606277578E+04   -0.70302E-04   -0.28011E-06  2007   0.184E-03    0.139E-02
DAV:  26    -0.123606278881E+04   -0.13029E-04   -0.67491E-07  1888   0.116E-03    0.137E-02
DAV:  27    -0.123606280022E+04   -0.11413E-04   -0.37277E-07  1887   0.849E-04    0.135E-02
DAV:  28    -0.123606280382E+04   -0.36036E-05   -0.20070E-07  1807   0.571E-04
   7 F= -.13168457E+04 E0= -.13167485E+04  d E =-.178174E+02
       N       E                     dE             d eps       ncg     rms          rms(c)
DAV:   1    -0.113014478613E+04    0.10592E+03   -0.19535E+04  3076   0.229E+02    0.152E+02
DAV:   2    -0.131249250799E+04   -0.18235E+03   -0.13719E+03  3686   0.555E+01    0.143E+02
DAV:   3    -0.180197599345E+04   -0.48948E+03   -0.10819E+03  4462   0.748E+01    0.142E+02
DAV:   4    -0.225624759640E+04   -0.45427E+03   -0.55537E+03  4599   0.983E+01    0.127E+02
DAV:   5    -0.157766959371E+04    0.67858E+03   -0.36662E+03  4446   0.607E+01    0.138E+02
DAV:   6    -0.150655248429E+04    0.71117E+02   -0.65755E+02  4112   0.336E+01    0.127E+02
DAV:   7    -0.145790545063E+04    0.48647E+02   -0.16739E+02  3976   0.172E+01    0.934E+01
DAV:   8    -0.124716399721E+04    0.21074E+03   -0.13829E+02  4632   0.261E+01    0.381E+01
DAV:   9    -0.124500545730E+04    0.21585E+01   -0.60758E+01  3656   0.794E+00    0.313E+01
DAV:  10    -0.123812571715E+04    0.68797E+01   -0.56464E+00  4272   0.410E+00    0.295E+01
DAV:  11    -0.123781675618E+04    0.30896E+00   -0.18628E+00  3568   0.142E+00    0.294E+01
DAV:  12    -0.123791488882E+04   -0.98133E-01   -0.10650E-01  4904   0.365E-01    0.292E+01
DAV:  13    -0.123315602925E+04    0.47589E+01   -0.32848E+00  4704   0.293E+00    0.261E+01
DAV:  14    -0.123137134623E+04    0.17847E+01   -0.49700E+00  4792   0.405E+00    0.281E+01
DAV:  15    -0.123261149041E+04   -0.12401E+01   -0.58920E+00  3680   0.377E+00    0.323E+01
DAV:  16    -0.126395589643E+04   -0.31344E+02   -0.65489E+01  4824   0.175E+01    0.695E+01
DAV:  17    -0.126159933616E+04    0.23566E+01   -0.18844E+01  3216   0.496E+00    0.725E+01
DAV:  18    -0.126000621887E+04    0.15931E+01   -0.90803E-01  4672   0.113E+00    0.708E+01
DAV:  19    -0.126670134767E+04   -0.66951E+01   -0.22464E+00  3928   0.257E+00    0.783E+01
DAV:  20    -0.126972104904E+04   -0.30197E+01   -0.32020E+00  3680   0.222E+00    0.810E+01
DAV:  21    -0.126462868422E+04    0.50924E+01   -0.18454E+00  4016   0.189E+00    0.777E+01
DAV:  22    -0.125883439415E+04    0.57943E+01   -0.29329E+00  4248   0.290E+00    0.713E+01
DAV:  23    -0.125423019269E+04    0.46042E+01   -0.14855E+00  4024   0.212E+00    0.670E+01
DAV:  24    -0.125338648786E+04    0.84370E+00   -0.63858E-01  3504   0.865E-01    0.650E+01
DAV:  25    -0.125114378574E+04    0.22427E+01   -0.30746E-01  4336   0.852E-01    0.618E+01
DAV:  26    -0.124378428134E+04    0.73595E+01   -0.30846E+00  4048   0.300E+00    0.513E+01
DAV:  27    -0.124028583527E+04    0.34984E+01   -0.16971E+00  4568   0.187E+00    0.451E+01
DAV:  28    -0.124001179767E+04    0.27404E+00   -0.89565E-02  3848   0.363E-01    0.445E+01
DAV:  29    -0.123778097681E+04    0.22308E+01   -0.49092E-01  4344   0.126E+00    0.405E+01
DAV:  30    -0.123832435091E+04   -0.54337E+00   -0.18795E-01  4344   0.746E-01    0.418E+01
DAV:  31    -0.123688257143E+04    0.14418E+01   -0.17862E-01  4023   0.784E-01    0.392E+01
DAV:  32    -0.123338572926E+04    0.34968E+01   -0.19401E+00  4216   0.224E+00    0.317E+01
DAV:  33    -0.123308236513E+04    0.30336E+00   -0.16162E-01  3686   0.518E-01    0.305E+01
DAV:  34    -0.123010702286E+04    0.29753E+01   -0.28841E+00  3664   0.252E+00    0.222E+01
DAV:  35    -0.122911712054E+04    0.98990E+00   -0.11389E+00  4263   0.151E+00    0.176E+01
DAV:  36    -0.122898349435E+04    0.13363E+00   -0.82775E-02  4752   0.370E-01    0.164E+01
DAV:  37    -0.122878327292E+04    0.20022E+00   -0.21316E-02  4686   0.299E-01    0.154E+01
DAV:  38    -0.122837224603E+04    0.41103E+00   -0.24123E-01  3904   0.737E-01    0.128E+01
DAV:  39    -0.122770555089E+04    0.66670E+00   -0.12413E+00  4168   0.183E+00    0.659E+00
DAV:  40    -0.122760001943E+04    0.10553E+00   -0.59562E-01  3752   0.110E+00    0.385E+00
DAV:  41    -0.122757643813E+04    0.23581E-01   -0.55051E-02  4760   0.293E-01    0.323E+00
DAV:  42    -0.122757503588E+04    0.14023E-02   -0.10130E-02  3656   0.114E-01    0.302E+00
DAV:  43    -0.122757012484E+04    0.49110E-02   -0.35405E-03  4640   0.108E-01    0.270E+00
DAV:  44    -0.122756921071E+04    0.91413E-03   -0.16498E-02  4472   0.247E-01    0.260E+00
DAV:  45    -0.122756855624E+04    0.65448E-03   -0.20123E-02  4176   0.241E-01    0.253E+00
DAV:  46    -0.122757759521E+04   -0.90390E-02   -0.19247E-02  4288   0.212E-01    0.268E+00
DAV:  47    -0.122758244756E+04   -0.48524E-02   -0.43255E-03  3464   0.920E-02    0.269E+00
DAV:  48    -0.122757723955E+04    0.52080E-02   -0.29181E-03  3616   0.765E-02    0.237E+00
DAV:  49    -0.122757078297E+04    0.64566E-02   -0.32554E-03  3976   0.842E-02    0.200E+00
DAV:  50    -0.122756653810E+04    0.42449E-02   -0.15302E-03  4008   0.601E-02    0.173E+00
DAV:  51    -0.122755888323E+04    0.76549E-02   -0.77542E-03  3864   0.133E-01    0.120E+00
DAV:  52    -0.122755307204E+04    0.58112E-02   -0.17125E-02  4016   0.204E-01    0.343E-01
DAV:  53    -0.122755272002E+04    0.35202E-03   -0.21120E-03  4488   0.609E-02    0.190E-01
DAV:  54    -0.122755273116E+04   -0.11137E-04   -0.15037E-04  4288   0.228E-02    0.185E-01
DAV:  55    -0.122755264868E+04    0.82478E-04   -0.17261E-04  3920   0.191E-02    0.139E-01
DAV:  56    -0.122755260578E+04    0.42902E-04   -0.37777E-04  3720   0.302E-02    0.921E-02
DAV:  57    -0.122755258725E+04    0.18525E-04   -0.11730E-04  3704   0.162E-02    0.624E-02
DAV:  58    -0.122755259742E+04   -0.10168E-04   -0.42187E-05  3560   0.990E-03    0.649E-02
DAV:  59    -0.122755259765E+04   -0.22590E-06   -0.34919E-05  3176   0.855E-03
   8 F= -.13081665E+04 E0= -.13080527E+04  d E =-.913827E+01
       N       E                     dE             d eps       ncg     rms          rms(c)
DAV:   1    -0.120213373724E+04    0.25419E+02   -0.10768E+04  2948   0.164E+02    0.729E+01
DAV:   2    -0.132278416147E+04   -0.12065E+03   -0.72918E+02  4312   0.508E+01    0.714E+01
DAV:   3    -0.183710594228E+04   -0.51432E+03   -0.52844E+02  3892   0.638E+01    0.151E+02
DAV:   4    -0.123123740403E+04    0.60587E+03   -0.22919E+02  4125   0.338E+01    0.553E+01
DAV:   5    -0.129919523799E+04   -0.67958E+02   -0.19965E+02  4160   0.205E+01    0.459E+01
DAV:   6    -0.125406516748E+04    0.45130E+02   -0.11800E+02  4120   0.184E+01    0.271E+01
DAV:   7    -0.125005569608E+04    0.40095E+01   -0.75096E+01  4535   0.141E+01    0.226E+01
DAV:   8    -0.124761175993E+04    0.24439E+01   -0.43447E+01  4808   0.133E+01    0.236E+01
DAV:   9    -0.124458197226E+04    0.30298E+01   -0.18333E+01  4416   0.737E+00    0.210E+01
DAV:  10    -0.124158333548E+04    0.29986E+01   -0.48035E+00  4152   0.350E+00    0.151E+01
DAV:  11    -0.123998908332E+04    0.15943E+01   -0.30513E+00  4800   0.330E+00    0.870E+00
DAV:  12    -0.123964911073E+04    0.33997E+00   -0.14480E+00  4232   0.231E+00    0.702E+00
DAV:  13    -0.123954131810E+04    0.10779E+00   -0.70266E-01  3944   0.101E+00    0.425E+00
DAV:  14    -0.123961611331E+04   -0.74795E-01   -0.10592E-01  4160   0.422E-01    0.484E+00
DAV:  15    -0.123955219750E+04    0.63916E-01   -0.63962E-02  4152   0.334E-01    0.346E+00
DAV:  16    -0.123953494793E+04    0.17250E-01   -0.78989E-02  4216   0.389E-01    0.216E+00
DAV:  17    -0.123954318142E+04   -0.82335E-02   -0.20220E-02  4176   0.177E-01    0.185E+00
DAV:  18    -0.123953531553E+04    0.78659E-02   -0.41127E-02  4688   0.268E-01    0.547E-01
DAV:  19    -0.123954143835E+04   -0.61228E-02   -0.17113E-02  3992   0.154E-01    0.245E-01
DAV:  20    -0.123954189605E+04   -0.45770E-03   -0.21593E-03  4552   0.582E-02    0.207E-01
DAV:  21    -0.123954164940E+04    0.24665E-03   -0.13117E-03  4312   0.463E-02    0.111E-01
DAV:  22    -0.123954164481E+04    0.45989E-05   -0.24264E-04  4168   0.235E-02    0.524E-02
DAV:  23    -0.123954168381E+04   -0.39000E-04   -0.38862E-05  3768   0.841E-03    0.427E-02
DAV:  24    -0.123954172308E+04   -0.39271E-04   -0.20655E-05  3136   0.856E-03    0.323E-02
DAV:  25    -0.123954177220E+04   -0.49119E-04   -0.26268E-05  3088   0.632E-03    0.176E-02
DAV:  26    -0.123954179853E+04   -0.26336E-04   -0.47918E-06  2104   0.334E-03    0.202E-02
DAV:  27    -0.123954183869E+04   -0.40158E-04   -0.81253E-06  2112   0.412E-03    0.174E-02
DAV:  28    -0.123954187001E+04   -0.31323E-04   -0.41836E-06  2088   0.236E-03    0.156E-02
DAV:  29    -0.123954188901E+04   -0.19000E-04   -0.20665E-06  2000   0.144E-03    0.153E-02
DAV:  30    -0.123954190368E+04   -0.14662E-04   -0.23232E-06  2008   0.147E-03    0.152E-02
DAV:  31    -0.123954191059E+04   -0.69169E-05   -0.11019E-06  1896   0.101E-03    0.154E-02
DAV:  32    -0.123954191449E+04   -0.39006E-05   -0.75407E-07  1832   0.101E-03
   9 F= -.13202363E+04 E0= -.13201131E+04  d E =-.212080E+02
       N       E                     dE             d eps       ncg     rms          rms(c)
DAV:   1    -0.124361935755E+04   -0.40774E+01   -0.44569E+02  3044   0.325E+01    0.165E+01
DAV:   2    -0.129152947677E+04   -0.47910E+02   -0.37519E+01  4431   0.145E+01    0.429E+01
DAV:   3    -0.126333621917E+04    0.28193E+02   -0.45047E+01  4328   0.188E+01    0.248E+01
DAV:   4    -0.125243567351E+04    0.10901E+02   -0.25538E+01  3792   0.109E+01    0.138E+01
DAV:   5    -0.124428956896E+04    0.81461E+01   -0.12009E+01  3856   0.610E+00    0.654E+00
DAV:   6    -0.124466865042E+04   -0.37908E+00   -0.20318E+00  3536   0.214E+00    0.756E+00
DAV:   7    -0.124457922343E+04    0.89427E-01   -0.31277E-01  4512   0.670E-01    0.643E+00
DAV:   8    -0.124442068655E+04    0.15854E+00   -0.18428E-01  4544   0.733E-01    0.531E+00
DAV:   9    -0.124442363332E+04   -0.29468E-02   -0.28600E-01  4488   0.730E-01    0.212E+00
DAV:  10    -0.124437682667E+04    0.46807E-01   -0.11651E-01  3920   0.646E-01    0.982E-01
DAV:  11    -0.124439390259E+04   -0.17076E-01   -0.44101E-02  4112   0.373E-01    0.194E+00
DAV:  12    -0.124438213915E+04    0.11763E-01   -0.10052E-02  3824   0.188E-01    0.159E+00
DAV:  13    -0.124437305537E+04    0.90838E-02   -0.16076E-02  4176   0.186E-01    0.339E-01
DAV:  14    -0.124437775905E+04   -0.47037E-02   -0.33046E-03  3632   0.799E-02    0.243E-01
DAV:  15    -0.124437830887E+04   -0.54982E-03   -0.64053E-04  4312   0.340E-02    0.172E-01
DAV:  16    -0.124437847776E+04   -0.16889E-03   -0.22500E-04  4328   0.238E-02    0.793E-02
DAV:  17    -0.124437861789E+04   -0.14012E-03   -0.81737E-05  4128   0.145E-02    0.409E-02
DAV:  18    -0.124437867930E+04   -0.61417E-04   -0.41527E-05  3616   0.980E-03    0.338E-02
DAV:  19    -0.124437874135E+04   -0.62046E-04   -0.17573E-05  2320   0.706E-03    0.247E-02
DAV:  20    -0.124437877977E+04   -0.38417E-04   -0.35322E-06  1888   0.301E-03    0.173E-02
DAV:  21    -0.124437881908E+04   -0.39309E-04   -0.18305E-06  1848   0.183E-03    0.158E-02
DAV:  22    -0.124437887663E+04   -0.57559E-04   -0.26299E-06  1848   0.201E-03    0.154E-02
DAV:  23    -0.124437891507E+04   -0.38431E-04   -0.19925E-06  1832   0.158E-03    0.152E-02
DAV:  24    -0.124437892964E+04   -0.14573E-04   -0.71694E-07  1776   0.108E-03    0.152E-02
DAV:  25    -0.124437893910E+04   -0.94666E-05   -0.48491E-07  1784   0.891E-04    0.153E-02
DAV:  26    -0.124437894429E+04   -0.51836E-05   -0.28207E-07  1752   0.661E-04    0.151E-02
DAV:  27    -0.124437894851E+04   -0.42253E-05   -0.18650E-07  1752   0.539E-04
  10 F= -.13250424E+04 E0= -.13249232E+04  d E =-.480615E+01
       N       E                     dE             d eps       ncg     rms          rms(c)
DAV:   1    -0.124525448400E+04   -0.87554E+00   -0.40929E+03  3036   0.102E+02    0.599E+01
DAV:   2    -0.132462669541E+04   -0.79372E+02   -0.14135E+02  3760   0.255E+01    0.557E+01
DAV:   3    -0.170943788036E+04   -0.38481E+03   -0.87879E+01  4168   0.588E+01    0.855E+01
DAV:   4    -0.131968932645E+04    0.38975E+03   -0.34812E+02  4110   0.338E+01    0.546E+01
DAV:   5    -0.129180427237E+04    0.27885E+02   -0.16243E+02  3952   0.182E+01    0.380E+01
DAV:   6    -0.127183027179E+04    0.19974E+02   -0.44937E+01  4104   0.115E+01    0.270E+01
DAV:   7    -0.125757177875E+04    0.14258E+02   -0.11022E+01  4288   0.824E+00    0.149E+01
DAV:   8    -0.125888163731E+04   -0.13099E+01   -0.63957E+00  3520   0.276E+00    0.135E+01
DAV:   9    -0.125720144124E+04    0.16802E+01   -0.25323E+00  4216   0.284E+00    0.109E+01
DAV:  10    -0.125735240951E+04   -0.15097E+00   -0.13224E+00  4096   0.207E+00    0.783E+00
DAV:  11    -0.125747749598E+04   -0.12509E+00   -0.96373E-01  3848   0.238E+00    0.722E+00
DAV:  12    -0.125721405211E+04    0.26344E+00   -0.22892E+00  4368   0.209E+00    0.560E+00
DAV:  13    -0.125710982182E+04    0.10423E+00   -0.41301E-01  3488   0.752E-01    0.428E+00
DAV:  14    -0.125704345891E+04    0.66363E-01   -0.85371E-02  4024   0.510E-01    0.359E+00
DAV:  15    -0.125696943514E+04    0.74024E-01   -0.40842E-02  4024   0.308E-01    0.254E+00
DAV:  16    -0.125691525386E+04    0.54181E-01   -0.30776E-02  4840   0.334E-01    0.122E+00
DAV:  17    -0.125692215506E+04   -0.69012E-02   -0.19204E-02  3688   0.190E-01    0.829E-01
DAV:  18    -0.125692420918E+04   -0.20541E-02   -0.25350E-03  4616   0.776E-02    0.735E-01
DAV:  19    -0.125692071092E+04    0.34983E-02   -0.84841E-03  3639   0.927E-02    0.309E-01
DAV:  20    -0.125692234858E+04   -0.16377E-02   -0.17269E-03  4360   0.601E-02    0.126E-01
DAV:  21    -0.125692284087E+04   -0.49229E-03   -0.34808E-04  4429   0.250E-02    0.701E-02
DAV:  22    -0.125692309776E+04   -0.25690E-03   -0.59698E-05  3912   0.108E-02    0.567E-02
DAV:  23    -0.125692332420E+04   -0.22644E-03   -0.91707E-05  3685   0.140E-02    0.301E-02
DAV:  24    -0.125692349089E+04   -0.16669E-03   -0.14122E-05  2272   0.647E-03    0.236E-02
DAV:  25    -0.125692361616E+04   -0.12527E-03   -0.15388E-05  2349   0.540E-03    0.177E-02
DAV:  26    -0.125692375182E+04   -0.13566E-03   -0.84317E-06  1984   0.482E-03    0.138E-02
DAV:  27    -0.125692380042E+04   -0.48603E-04   -0.43733E-06  1774   0.374E-03    0.141E-02
DAV:  28    -0.125692382472E+04   -0.24303E-04   -0.46243E-06  1744   0.273E-03    0.137E-02
DAV:  29    -0.125692383320E+04   -0.84754E-05   -0.15172E-06  1720   0.202E-03    0.117E-02
DAV:  30    -0.125692383695E+04   -0.37520E-05   -0.57522E-07  1664   0.157E-03
  11 F= -.13375254E+04 E0= -.13374299E+04  d E =-.172891E+02
       N       E                     dE             d eps       ncg     rms          rms(c)
DAV:   1    -0.115040399252E+04    0.10652E+03   -0.16722E+04  2972   0.217E+02    0.164E+02
DAV:   2    -0.124819308716E+04   -0.97789E+02   -0.10496E+03  3198   0.405E+01    0.655E+01
DAV:   3    -0.154353872104E+04   -0.29535E+03   -0.12746E+02  4301   0.453E+01    0.106E+02
DAV:   4    -0.138171394495E+04    0.16182E+03   -0.21930E+02  4336   0.501E+01    0.498E+01
DAV:   5    -0.132272145379E+04    0.58992E+02   -0.43191E+02  4046   0.331E+01    0.577E+01
DAV:   6    -0.127756223137E+04    0.45159E+02   -0.21763E+02  3872   0.219E+01    0.415E+01
DAV:   7    -0.125802733479E+04    0.19535E+02   -0.60366E+01  3880   0.123E+01    0.386E+01
DAV:   8    -0.124488915010E+04    0.13138E+02   -0.22626E+01  4112   0.799E+00    0.252E+01
DAV:   9    -0.123845653965E+04    0.64326E+01   -0.13062E+01  4240   0.630E+00    0.202E+01
DAV:  10    -0.123845739992E+04   -0.86027E-03   -0.36551E+00  3504   0.218E+00    0.186E+01
DAV:  11    -0.123817061975E+04    0.28678E+00   -0.41001E-01  4328   0.858E-01    0.186E+01
DAV:  12    -0.123897010004E+04   -0.79948E+00   -0.25275E+00  4208   0.305E+00    0.178E+01
DAV:  13    -0.123731330404E+04    0.16568E+01   -0.36785E+00  4272   0.316E+00    0.157E+01
DAV:  14    -0.123517456989E+04    0.21387E+01   -0.36914E+00  4224   0.390E+00    0.110E+01
DAV:  15    -0.123537163100E+04   -0.19706E+00   -0.16883E+00  3440   0.138E+00    0.102E+01
DAV:  16    -0.123530447047E+04    0.67161E-01   -0.73773E-02  4568   0.420E-01    0.993E+00
DAV:  17    -0.123480977914E+04    0.49469E+00   -0.11705E+00  4712   0.249E+00    0.795E+00
DAV:  18    -0.123505014505E+04   -0.24037E+00   -0.11318E+00  3712   0.150E+00    0.858E+00
DAV:  19    -0.123487986165E+04    0.17028E+00   -0.18783E-01  3528   0.632E-01    0.800E+00
DAV:  20    -0.123481802499E+04    0.61837E-01   -0.75413E-02  4192   0.511E-01    0.775E+00
DAV:  21    -0.123471343555E+04    0.10459E+00   -0.21381E-01  4056   0.910E-01    0.821E+00
DAV:  22    -0.123470253176E+04    0.10904E-01   -0.12831E-01  4048   0.487E-01    0.821E+00
DAV:  23    -0.123465302187E+04    0.49510E-01   -0.13479E-02  4280   0.231E-01    0.785E+00
DAV:  24    -0.123455272859E+04    0.10029E+00   -0.33708E-02  4488   0.358E-01    0.696E+00
DAV:  25    -0.123451732528E+04    0.35403E-01   -0.15292E-02  3976   0.188E-01    0.638E+00
DAV:  26    -0.123439023892E+04    0.12709E+00   -0.70212E-02  4352   0.558E-01    0.482E+00
DAV:  27    -0.123427498081E+04    0.11526E+00   -0.16173E-01  4528   0.754E-01    0.283E+00
DAV:  28    -0.123425266434E+04    0.22316E-01   -0.57773E-02  4160   0.334E-01    0.211E+00
DAV:  29    -0.123424965122E+04    0.30131E-02   -0.28840E-03  3792   0.765E-02    0.203E+00
DAV:  30    -0.123424229086E+04    0.73604E-02   -0.28757E-03  4544   0.103E-01    0.175E+00
DAV:  31    -0.123422496464E+04    0.17326E-01   -0.14425E-02  4328   0.306E-01    0.105E+00
DAV:  32    -0.123421715810E+04    0.78065E-02   -0.48101E-02  4448   0.394E-01    0.292E-01
DAV:  33    -0.123421814075E+04   -0.98265E-03   -0.71862E-03  3496   0.112E-01    0.165E-01
DAV:  34    -0.123421819929E+04   -0.58538E-04   -0.51660E-04  4784   0.295E-02    0.169E-01
DAV:  35    -0.123421822251E+04   -0.23221E-04   -0.10040E-04  4504   0.199E-02    0.142E-01
DAV:  36    -0.123421838461E+04   -0.16210E-03   -0.26177E-04  4352   0.400E-02    0.139E-01
DAV:  37    -0.123421828699E+04    0.97615E-04   -0.26026E-04  4720   0.366E-02    0.110E-01
DAV:  38    -0.123421831725E+04   -0.30257E-04   -0.15492E-04  3424   0.137E-02    0.121E-01
DAV:  39    -0.123421830249E+04    0.14760E-04   -0.15540E-05  2304   0.690E-03    0.110E-01
DAV:  40    -0.123421829943E+04    0.30567E-05   -0.23960E-05  2952   0.826E-03
  12 F= -.13147189E+04 E0= -.13146950E+04  d E =0.551742E+01
       N       E                     dE             d eps       ncg     rms          rms(c)
DAV:   1    -0.121095338883E+04    0.23265E+02   -0.11643E+04  2940   0.174E+02    0.911E+01
DAV:   2    -0.136727636087E+04   -0.15632E+03   -0.79623E+02  4264   0.505E+01    0.828E+01
DAV:   3    -0.189467920713E+04   -0.52740E+03   -0.23278E+02  3780   0.635E+01    0.150E+02
DAV:   4    -0.125835856506E+04    0.63632E+03   -0.27598E+02  4343   0.340E+01    0.541E+01
DAV:   5    -0.130578552317E+04   -0.47427E+02   -0.17206E+02  4144   0.183E+01    0.698E+01
DAV:   6    -0.131952119923E+04   -0.13736E+02   -0.42931E+01  4280   0.124E+01    0.530E+01
DAV:   7    -0.129928517592E+04    0.20236E+02   -0.77612E+01  4047   0.205E+01    0.297E+01
DAV:   8    -0.126968998521E+04    0.29595E+02   -0.10461E+02  4576   0.167E+01    0.200E+01
DAV:   9    -0.126093687184E+04    0.87531E+01   -0.23825E+01  4240   0.908E+00    0.129E+01
DAV:  10    -0.126081481370E+04    0.12206E+00   -0.51420E+00  3968   0.280E+00    0.126E+01
DAV:  11    -0.126059676332E+04    0.21805E+00   -0.14073E+00  4560   0.145E+00    0.919E+00
DAV:  12    -0.125965859286E+04    0.93817E+00   -0.22266E+00  4488   0.250E+00    0.698E+00
DAV:  13    -0.125942901180E+04    0.22958E+00   -0.16821E+00  4176   0.187E+00    0.369E+00
DAV:  14    -0.125948288029E+04   -0.53868E-01   -0.67519E-01  3872   0.960E-01    0.357E+00
DAV:  15    -0.125934787975E+04    0.13500E+00   -0.24601E-01  4096   0.596E-01    0.217E+00
DAV:  16    -0.125932642258E+04    0.21457E-01   -0.61407E-02  4304   0.299E-01    0.147E+00
DAV:  17    -0.125930684948E+04    0.19573E-01   -0.26173E-02  4384   0.263E-01    0.972E-01
DAV:  18    -0.125930279698E+04    0.40525E-02   -0.14929E-02  4272   0.198E-01    0.513E-01
DAV:  19    -0.125930257616E+04    0.22082E-03   -0.79259E-03  3816   0.135E-01    0.334E-01
DAV:  20    -0.125930338233E+04   -0.80617E-03   -0.20812E-03  4048   0.537E-02    0.292E-01
DAV:  21    -0.125930347892E+04   -0.96589E-04   -0.44069E-04  4352   0.382E-02    0.186E-01
DAV:  22    -0.125930393390E+04   -0.45498E-03   -0.93872E-04  4640   0.545E-02    0.568E-02
DAV:  23    -0.125930410145E+04   -0.16755E-03   -0.37038E-04  3632   0.237E-02    0.441E-02
DAV:  24    -0.125930431578E+04   -0.21433E-03   -0.45315E-05  3440   0.975E-03    0.354E-02
DAV:  25    -0.125930472816E+04   -0.41238E-03   -0.64406E-05  3152   0.928E-03    0.345E-02
DAV:  26    -0.125930483359E+04   -0.10543E-03   -0.19489E-05  2832   0.642E-03    0.166E-02
DAV:  27    -0.125930497932E+04   -0.14573E-03   -0.11843E-05  2280   0.374E-03    0.116E-02
DAV:  28    -0.125930516556E+04   -0.18624E-03   -0.19752E-05  2432   0.371E-03    0.706E-03
DAV:  29    -0.125930525865E+04   -0.93088E-04   -0.98935E-06  2304   0.278E-03    0.685E-03
DAV:  30    -0.125930528869E+04   -0.30036E-04   -0.28886E-06  1944   0.211E-03    0.713E-03
DAV:  31    -0.125930530444E+04   -0.15749E-04   -0.15387E-06  1848   0.150E-03    0.653E-03
DAV:  32    -0.125930531281E+04   -0.83704E-05   -0.10387E-06  1808   0.127E-03    0.494E-03
DAV:  33    -0.125930531405E+04   -0.12414E-05   -0.46262E-07  1632   0.897E-04
  13 F= -.13398896E+04 E0= -.13398045E+04  d E =-.196533E+02
       N       E                     dE             d eps       ncg     rms          rms(c)
DAV:   1    -0.125904698703E+04    0.25833E+00   -0.41157E+02  2964   0.315E+01    0.184E+01
DAV:   2    -0.126602756200E+04   -0.69806E+01   -0.26481E+01  3944   0.753E+00    0.181E+01
DAV:   3    -0.130207482665E+04   -0.36047E+02   -0.99885E+00  4072   0.171E+01    0.429E+01
DAV:   4    -0.126107130661E+04    0.41004E+02   -0.13773E+01  4304   0.131E+01    0.981E+00
DAV:   5    -0.126142939219E+04   -0.35809E+00   -0.13904E+01  3814   0.544E+00    0.560E+00
DAV:   6    -0.126004259466E+04    0.13868E+01   -0.23283E+00  3736   0.308E+00    0.419E+00
DAV:   7    -0.125996767499E+04    0.74920E-01   -0.51820E-01  4112   0.150E+00    0.284E+00
DAV:   8    -0.126004394194E+04   -0.76267E-01   -0.25293E-01  4112   0.104E+00    0.298E+00
DAV:   9    -0.125993747318E+04    0.10647E+00   -0.30738E-01  4039   0.889E-01    0.802E-01
DAV:  10    -0.125994768056E+04   -0.10207E-01   -0.35547E-02  4192   0.243E-01    0.487E-01
DAV:  11    -0.125994592115E+04    0.17594E-02   -0.62956E-03  4024   0.167E-01    0.178E-01
DAV:  12    -0.125994623174E+04   -0.31059E-03   -0.32033E-03  3624   0.885E-02    0.154E-01
DAV:  13    -0.125994628144E+04   -0.49697E-04   -0.88180E-04  4360   0.598E-02    0.857E-02
DAV:  14    -0.125994640744E+04   -0.12601E-03   -0.33187E-04  4464   0.262E-02    0.511E-02
DAV:  15    -0.125994649386E+04   -0.86414E-04   -0.10275E-04  4336   0.142E-02    0.347E-02
DAV:  16    -0.125994653037E+04   -0.36507E-04   -0.13565E-05  2400   0.595E-03    0.265E-02
DAV:  17    -0.125994658459E+04   -0.54221E-04   -0.11750E-05  2368   0.483E-03    0.153E-02
DAV:  18    -0.125994663898E+04   -0.54388E-04   -0.48653E-06  1800   0.396E-03    0.717E-03
DAV:  19    -0.125994666885E+04   -0.29878E-04   -0.36190E-06  1784   0.255E-03    0.690E-03
DAV:  20    -0.125994669315E+04   -0.24298E-04   -0.16952E-06  1776   0.192E-03    0.658E-03
DAV:  21    -0.125994672355E+04   -0.30399E-04   -0.20047E-06  1800   0.201E-03    0.669E-03
DAV:  22    -0.125994673114E+04   -0.75886E-05   -0.73476E-07  1752   0.145E-03    0.577E-03
DAV:  23    -0.125994673788E+04   -0.67385E-05   -0.51622E-07  1776   0.980E-04    0.567E-03
DAV:  24    -0.125994674318E+04   -0.52999E-05   -0.33863E-07  1672   0.785E-04    0.565E-03
DAV:  25    -0.125994674495E+04   -0.17741E-05   -0.18192E-07  1656   0.526E-04
  14 F= -.13405154E+04 E0= -.13404458E+04  d E =-.202791E+02
       N       E                     dE             d eps       ncg     rms          rms(c)
DAV:   1    -0.126369749373E+04   -0.37508E+01   -0.59468E+02  2964   0.377E+01    0.244E+01
DAV:   2    -0.127425543205E+04   -0.10558E+02   -0.36919E+01  3928   0.952E+00    0.240E+01
DAV:   3    -0.132739255751E+04   -0.53137E+02   -0.37660E+01  4240   0.215E+01    0.456E+01
DAV:   4    -0.126972902001E+04    0.57664E+02   -0.14515E+01  4311   0.174E+01    0.117E+01
DAV:   5    -0.126850353843E+04    0.12255E+01   -0.30992E+01  3877   0.804E+00    0.747E+00
DAV:   6    -0.126502517546E+04    0.34784E+01   -0.53144E+00  3688   0.429E+00    0.491E+00
DAV:   7    -0.126510361090E+04   -0.78435E-01   -0.16831E+00  4072   0.183E+00    0.410E+00
DAV:   8    -0.126512039457E+04   -0.16784E-01   -0.26678E-01  4064   0.123E+00    0.313E+00
DAV:   9    -0.126504514375E+04    0.75251E-01   -0.18086E-01  4120   0.905E-01    0.141E+00
DAV:  10    -0.126503669760E+04    0.84461E-02   -0.58001E-02  3880   0.398E-01    0.763E-01
DAV:  11    -0.126503543832E+04    0.12593E-02   -0.21035E-02  4551   0.183E-01    0.415E-01
DAV:  12    -0.126503582256E+04   -0.38424E-03   -0.33217E-03  4256   0.663E-02    0.357E-01
DAV:  13    -0.126503584547E+04   -0.22905E-04   -0.10696E-03  4384   0.467E-02    0.207E-01
DAV:  14    -0.126503630693E+04   -0.46147E-03   -0.59076E-04  3872   0.464E-02    0.106E-01
DAV:  15    -0.126503627497E+04    0.31961E-04   -0.25665E-04  3792   0.340E-02    0.106E-01
DAV:  16    -0.126503635156E+04   -0.76590E-04   -0.19401E-04  4768   0.236E-02    0.647E-02
DAV:  17    -0.126503638383E+04   -0.32267E-04   -0.50696E-05  3440   0.860E-03    0.498E-02
DAV:  18    -0.126503644416E+04   -0.60330E-04   -0.60246E-06  2160   0.498E-03    0.366E-02
DAV:  19    -0.126503652365E+04   -0.79490E-04   -0.28525E-05  3256   0.670E-03    0.129E-02
DAV:  20    -0.126503654298E+04   -0.19334E-04   -0.48842E-06  1816   0.343E-03    0.108E-02
DAV:  21    -0.126503657756E+04   -0.34576E-04   -0.24054E-06  1784   0.263E-03    0.994E-03
DAV:  22    -0.126503662099E+04   -0.43426E-04   -0.23382E-06  1792   0.205E-03    0.995E-03
DAV:  23    -0.126503664674E+04   -0.25754E-04   -0.11528E-06  1768   0.158E-03    0.100E-02
DAV:  24    -0.126503666519E+04   -0.18454E-04   -0.81043E-07  1760   0.164E-03    0.956E-03
DAV:  25    -0.126503667637E+04   -0.11173E-04   -0.65715E-07  1704   0.120E-03    0.964E-03
DAV:  26    -0.126503667944E+04   -0.30717E-05   -0.28178E-07  1656   0.762E-04
  15 F= -.13455961E+04 E0= -.13455330E+04  d E =-.508072E+01
       N       E                     dE             d eps       ncg     rms          rms(c)
DAV:   1    -0.126421818788E+04    0.81849E+00   -0.17360E+03  2964   0.653E+01    0.430E+01
DAV:   2    -0.126982759588E+04   -0.56094E+01   -0.65427E+01  3640   0.112E+01    0.205E+01
DAV:   3    -0.135267053121E+04   -0.82843E+02   -0.57367E+01  4568   0.211E+01    0.480E+01
DAV:   4    -0.127062729461E+04    0.82043E+02   -0.15652E+01  4535   0.201E+01    0.129E+01
DAV:   5    -0.128188520173E+04   -0.11258E+02   -0.48945E+01  4032   0.102E+01    0.120E+01
DAV:   6    -0.126918359895E+04    0.12702E+02   -0.12666E+01  3736   0.709E+00    0.703E+00
DAV:   7    -0.126945565678E+04   -0.27206E+00   -0.56366E+00  3872   0.270E+00    0.514E+00
DAV:   8    -0.126903517931E+04    0.42048E+00   -0.57392E-01  3752   0.143E+00    0.202E+00
DAV:   9    -0.126904096255E+04   -0.57832E-02   -0.46863E-01  3672   0.930E-01    0.116E+00
DAV:  10    -0.126902282926E+04    0.18133E-01   -0.12067E-01  3544   0.538E-01    0.832E-01
DAV:  11    -0.126901861163E+04    0.42176E-02   -0.29009E-02  4240   0.309E-01    0.756E-01
DAV:  12    -0.126901654722E+04    0.20644E-02   -0.15653E-02  4640   0.195E-01    0.610E-01
DAV:  13    -0.126901723652E+04   -0.68930E-03   -0.41464E-03  3760   0.723E-02    0.756E-01
DAV:  14    -0.126901719890E+04    0.37611E-04   -0.46173E-04  4680   0.367E-02    0.859E-01
DAV:  15    -0.126901735601E+04   -0.15711E-03   -0.50600E-04  4632   0.483E-02    0.905E-01
DAV:  16    -0.126901671535E+04    0.64066E-03   -0.23329E-03  4304   0.103E-01    0.100E+00
DAV:  17    -0.126901713962E+04   -0.42427E-03   -0.13827E-03  3776   0.463E-02    0.108E+00
DAV:  18    -0.126901703438E+04    0.10524E-03   -0.13662E-04  4104   0.175E-02    0.102E+00
DAV:  19    -0.126901679229E+04    0.24210E-03   -0.18553E-04  4416   0.278E-02    0.860E-01
DAV:  20    -0.126901656207E+04    0.23021E-03   -0.27903E-04  4664   0.325E-02    0.686E-01
DAV:  21    -0.126901645375E+04    0.10832E-03   -0.27109E-04  4736   0.259E-02    0.534E-01
DAV:  22    -0.126901641969E+04    0.34063E-04   -0.71203E-05  4272   0.152E-02    0.444E-01
DAV:  23    -0.126901639978E+04    0.19910E-04   -0.24060E-04  4664   0.305E-02    0.268E-01
DAV:  24    -0.126901651696E+04   -0.11718E-03   -0.23319E-04  4368   0.235E-02    0.830E-02
DAV:  25    -0.126901658867E+04   -0.71718E-04   -0.95251E-05  4560   0.195E-02    0.272E-02
DAV:  26    -0.126901664292E+04   -0.54241E-04   -0.46535E-05  3240   0.816E-03    0.724E-02
DAV:  27    -0.126901665549E+04   -0.12578E-04   -0.22769E-06  1904   0.316E-03    0.654E-02
DAV:  28    -0.126901668025E+04   -0.24758E-04   -0.18403E-06  1800   0.299E-03    0.549E-02
DAV:  29    -0.126901670183E+04   -0.21576E-04   -0.38085E-06  1944   0.328E-03    0.403E-02
DAV:  30    -0.126901671901E+04   -0.17179E-04   -0.23501E-06  1792   0.212E-03    0.314E-02
DAV:  31    -0.126901672935E+04   -0.10344E-04   -0.14370E-06  1744   0.176E-03    0.284E-02
DAV:  32    -0.126901673467E+04   -0.53248E-05   -0.19265E-06  1757   0.237E-03    0.192E-02
DAV:  33    -0.126901673884E+04   -0.41605E-05   -0.24876E-06  1741   0.213E-03
  16 F= -.13495594E+04 E0= -.13495193E+04  d E =-.904398E+01
       N       E                     dE             d eps       ncg     rms          rms(c)
DAV:   1    -0.127598471357E+04   -0.69680E+01   -0.79302E+02  2964   0.433E+01    0.170E+01
DAV:   2    -0.127824790629E+04   -0.22632E+01   -0.26822E+01  3600   0.662E+00    0.989E+00
DAV:   3    -0.127820664366E+04    0.41263E-01   -0.10908E+00  4303   0.153E+00    0.691E+00
DAV:   4    -0.127855870340E+04   -0.35206E+00   -0.57424E-01  4008   0.197E+00    0.372E+00
DAV:   5    -0.127943156216E+04   -0.87286E+00   -0.81664E-01  4143   0.375E+00    0.309E+00
DAV:   6    -0.127844596602E+04    0.98560E+00   -0.28630E-01  4376   0.279E+00    0.177E+00
DAV:   7    -0.127825214918E+04    0.19382E+00   -0.26578E-01  3824   0.102E+00    0.881E-01
DAV:   8    -0.127825408871E+04   -0.19395E-02   -0.84452E-02  3695   0.442E-01    0.564E-01
DAV:   9    -0.127824716575E+04    0.69230E-02   -0.18558E-02  4048   0.320E-01    0.372E-01
DAV:  10    -0.127824741881E+04   -0.25306E-03   -0.81680E-03  4096   0.128E-01    0.214E-01
DAV:  11    -0.127824765706E+04   -0.23826E-03   -0.30470E-03  4576   0.975E-02    0.109E-01
DAV:  12    -0.127824776184E+04   -0.10478E-03   -0.63227E-04  3824   0.495E-02    0.562E-02
DAV:  13    -0.127824782867E+04   -0.66826E-04   -0.23156E-04  4104   0.223E-02    0.332E-02
DAV:  14    -0.127824789320E+04   -0.64532E-04   -0.45273E-05  3824   0.885E-03    0.274E-02
DAV:  15    -0.127824796283E+04   -0.69631E-04   -0.13149E-05  2576   0.574E-03    0.186E-02
DAV:  16    -0.127824801555E+04   -0.52722E-04   -0.65157E-06  1976   0.435E-03    0.147E-02
DAV:  17    -0.127824805078E+04   -0.35223E-04   -0.46789E-06  1840   0.313E-03    0.141E-02
DAV:  18    -0.127824808984E+04   -0.39062E-04   -0.27207E-06  1864   0.224E-03    0.141E-02
DAV:  19    -0.127824811800E+04   -0.28160E-04   -0.16820E-06  1808   0.150E-03    0.139E-02
DAV:  20    -0.127824814834E+04   -0.30342E-04   -0.18904E-06  1816   0.189E-03    0.139E-02
DAV:  21    -0.127824815631E+04   -0.79633E-05   -0.71853E-07  1776   0.114E-03    0.139E-02
DAV:  22    -0.127824816136E+04   -0.50537E-05   -0.34389E-07  1720   0.832E-04    0.139E-02
DAV:  23    -0.127824816347E+04   -0.21093E-05   -0.21625E-07  1704   0.728E-04
  17 F= -.13587983E+04 E0= -.13587756E+04  d E =-.923894E+01
       N       E                     dE             d eps       ncg     rms          rms(c)
DAV:   1    -0.127928751565E+04   -0.10394E+01   -0.81228E+02  2964   0.439E+01    0.162E+01
DAV:   2    -0.128165321528E+04   -0.23657E+01   -0.27693E+01  3568   0.691E+00    0.990E+00
DAV:   3    -0.128196239572E+04   -0.30918E+00   -0.11538E+00  4080   0.269E+00    0.735E+00
DAV:   4    -0.128807757593E+04   -0.61152E+01   -0.11962E+00  4054   0.619E+00    0.793E+00
DAV:   5    -0.128210301421E+04    0.59746E+01   -0.11717E+00  4623   0.644E+00    0.497E+00
DAV:   6    -0.128157055472E+04    0.53246E+00   -0.11739E+00  3822   0.215E+00    0.139E+00
DAV:   7    -0.128160219400E+04   -0.31639E-01   -0.29582E-01  3600   0.797E-01    0.982E-01
DAV:   8    -0.128159892169E+04    0.32723E-02   -0.84469E-02  3848   0.548E-01    0.562E-01
DAV:   9    -0.128159082887E+04    0.80928E-02   -0.33380E-02  3472   0.332E-01    0.397E-01
DAV:  10    -0.128158927614E+04    0.15527E-02   -0.12667E-02  3632   0.174E-01    0.144E-01
DAV:  11    -0.128158994109E+04   -0.66495E-03   -0.48234E-03  4784   0.734E-02    0.118E-01
DAV:  12    -0.128159002837E+04   -0.87278E-04   -0.49990E-04  4416   0.359E-02    0.913E-02
DAV:  13    -0.128159011562E+04   -0.87251E-04   -0.14741E-04  3992   0.194E-02    0.380E-02
DAV:  14    -0.128159017375E+04   -0.58127E-04   -0.66186E-05  3616   0.113E-02    0.152E-02
DAV:  15    -0.128159021544E+04   -0.41689E-04   -0.85654E-06  1928   0.442E-03    0.142E-02
DAV:  16    -0.128159025065E+04   -0.35218E-04   -0.36670E-06  1840   0.306E-03    0.131E-02
DAV:  17    -0.128159028967E+04   -0.39015E-04   -0.31408E-06  1768   0.256E-03    0.125E-02
DAV:  18    -0.128159032369E+04   -0.34022E-04   -0.25591E-06  1776   0.224E-03    0.124E-02
DAV:  19    -0.128159034359E+04   -0.19895E-04   -0.17089E-06  1712   0.188E-03    0.123E-02
DAV:  20    -0.128159035372E+04   -0.10133E-04   -0.78749E-07  1696   0.138E-03    0.122E-02
DAV:  21    -0.128159036270E+04   -0.89853E-05   -0.54736E-07  1680   0.941E-04    0.122E-02
DAV:  22    -0.128159036574E+04   -0.30358E-05   -0.25767E-07  1680   0.688E-04
  18 F= -.13621474E+04 E0= -.13621243E+04  d E =-.125880E+02
       N       E                     dE             d eps       ncg     rms          rms(c)
DAV:   1    -0.128689490034E+04   -0.53045E+01   -0.46680E+02  2948   0.324E+01    0.188E+01
DAV:   2    -0.128827502593E+04   -0.13801E+01   -0.17519E+01  3576   0.558E+00    0.137E+01
DAV:   3    -0.128835297155E+04   -0.77946E-01   -0.81241E-01  4024   0.278E+00    0.854E+00
DAV:   4    -0.129457089736E+04   -0.62179E+01   -0.18795E+00  4399   0.636E+00    0.181E+01
DAV:   5    -0.128919014926E+04    0.53807E+01   -0.19231E+01  4351   0.752E+00    0.820E+00
DAV:   6    -0.128930130233E+04   -0.11115E+00   -0.30361E+00  4456   0.469E+00    0.521E+00
DAV:   7    -0.128853513623E+04    0.76617E+00   -0.12330E+00  3640   0.257E+00    0.417E+00
DAV:   8    -0.128841443229E+04    0.12070E+00   -0.36436E-01  3856   0.915E-01    0.315E+00
DAV:   9    -0.128837531070E+04    0.39122E-01   -0.20046E-01  4335   0.895E-01    0.219E+00
DAV:  10    -0.128828576989E+04    0.89541E-01   -0.21416E-01  4304   0.102E+00    0.114E+00
DAV:  11    -0.128827835284E+04    0.74171E-02   -0.15004E-01  3736   0.490E-01    0.933E-01
DAV:  12    -0.128827930014E+04   -0.94730E-03   -0.23208E-02  4600   0.190E-01    0.970E-01
DAV:  13    -0.128828090526E+04   -0.16051E-02   -0.43022E-03  4472   0.111E-01    0.816E-01
DAV:  14    -0.128828178870E+04   -0.88344E-03   -0.33793E-03  4376   0.891E-02    0.765E-01
DAV:  15    -0.128827456967E+04    0.72190E-02   -0.71585E-03  5024   0.220E-01    0.510E-01
DAV:  16    -0.128827288124E+04    0.16884E-02   -0.70627E-03  3848   0.109E-01    0.378E-01
DAV:  17    -0.128827282306E+04    0.58178E-04   -0.11047E-03  4464   0.363E-02    0.391E-01
DAV:  18    -0.128827269741E+04    0.12565E-03   -0.10869E-04  4632   0.122E-02    0.370E-01
DAV:  19    -0.128827250969E+04    0.18772E-03   -0.26460E-05  3240   0.101E-02    0.340E-01
DAV:  20    -0.128827120268E+04    0.13070E-02   -0.78371E-04  4040   0.727E-02    0.602E-01
DAV:  21    -0.128827094348E+04    0.25920E-03   -0.82049E-04  3896   0.380E-02    0.639E-01
DAV:  22    -0.128827087092E+04    0.72569E-04   -0.19127E-04  3728   0.157E-02    0.642E-01
DAV:  23    -0.128827071764E+04    0.15327E-03   -0.30584E-05  3576   0.105E-02    0.633E-01
DAV:  24    -0.128826999983E+04    0.71781E-03   -0.43536E-04  4968   0.495E-02    0.585E-01
DAV:  25    -0.128826931698E+04    0.68285E-03   -0.14359E-03  5128   0.763E-02    0.445E-01
DAV:  26    -0.128826935100E+04   -0.34016E-04   -0.65785E-04  3344   0.279E-02    0.371E-01
DAV:  27    -0.128826929134E+04    0.59664E-04   -0.66121E-05  4064   0.140E-02    0.319E-01
DAV:  28    -0.128826929040E+04    0.93953E-06   -0.22399E-05  2664   0.598E-03
  19 F= -.13688578E+04 E0= -.13688313E+04  d E =-.671044E+01
       N       E                     dE             d eps       ncg     rms          rms(c)
DAV:   1    -0.128274794919E+04    0.55213E+01   -0.36053E+03  2940   0.934E+01    0.497E+01
DAV:   2    -0.131456425079E+04   -0.31816E+02   -0.20052E+02  3960   0.281E+01    0.526E+01
DAV:   3    -0.143686511298E+04   -0.12230E+03   -0.48962E+01  3829   0.345E+01    0.857E+01
DAV:   4    -0.129208252188E+04    0.14478E+03   -0.67632E+01  4079   0.208E+01    0.333E+01
DAV:   5    -0.129908057582E+04   -0.69981E+01   -0.27886E+01  3720   0.733E+00    0.228E+01
DAV:   6    -0.134683226021E+04   -0.47752E+02   -0.40670E+01  4142   0.164E+01    0.236E+01
DAV:   7    -0.129503700360E+04    0.51795E+02   -0.32861E+01  4264   0.132E+01    0.939E+00
DAV:   8    -0.129544405628E+04   -0.40705E+00   -0.11664E+01  4200   0.443E+00    0.781E+00
DAV:   9    -0.129502557527E+04    0.41848E+00   -0.17163E+00  4064   0.206E+00    0.545E+00
DAV:  10    -0.129477646295E+04    0.24911E+00   -0.75557E-01  4472   0.132E+00    0.443E+00
DAV:  11    -0.129466965993E+04    0.10680E+00   -0.36810E-01  4440   0.920E-01    0.350E+00
DAV:  12    -0.129460817758E+04    0.61482E-01   -0.99983E-02  3960   0.510E-01    0.293E+00
DAV:  13    -0.129451751728E+04    0.90660E-01   -0.97521E-02  4696   0.683E-01    0.181E+00
DAV:  14    -0.129446900098E+04    0.48516E-01   -0.29041E-01  4752   0.131E+00    0.998E-01
DAV:  15    -0.129447835701E+04   -0.93560E-02   -0.16490E-01  3616   0.582E-01    0.133E+00
DAV:  16    -0.129447220846E+04    0.61485E-02   -0.21633E-02  4176   0.201E-01    0.752E-01
DAV:  17    -0.129447133582E+04    0.87264E-03   -0.41339E-03  4776   0.130E-01    0.630E-01
DAV:  18    -0.129446990731E+04    0.14285E-02   -0.48226E-03  4288   0.113E-01    0.304E-01
DAV:  19    -0.129446996949E+04   -0.62174E-04   -0.13162E-03  3928   0.461E-02    0.219E-01
DAV:  20    -0.129446996300E+04    0.64897E-05   -0.30562E-04  4936   0.296E-02    0.161E-01
DAV:  21    -0.129446995647E+04    0.65264E-05   -0.26186E-04  4184   0.311E-02    0.604E-02
DAV:  22    -0.129446998301E+04   -0.26538E-04   -0.20358E-04  3736   0.259E-02    0.452E-02
DAV:  23    -0.129447001518E+04   -0.32174E-04   -0.96256E-05  4320   0.136E-02    0.269E-02
DAV:  24    -0.129447001193E+04    0.32549E-05   -0.21841E-05  3208   0.102E-02
  20 F= -.13751466E+04 E0= -.13750779E+04  d E =-.129992E+02
       N       E                     dE             d eps       ncg     rms          rms(c)
DAV:   1    -0.129735432268E+04   -0.28843E+01   -0.12706E+03  2948   0.554E+01    0.199E+01
DAV:   2    -0.130407831607E+04   -0.67240E+01   -0.47667E+01  3808   0.114E+01    0.190E+01
DAV:   3    -0.133064356224E+04   -0.26565E+02   -0.49608E+01  4119   0.171E+01    0.300E+01
DAV:   4    -0.130241668700E+04    0.28227E+02   -0.21356E+01  4664   0.115E+01    0.982E+00
DAV:   5    -0.130147433301E+04    0.94235E+00   -0.45512E+00  3855   0.482E+00    0.766E+00
DAV:   6    -0.130122737750E+04    0.24696E+00   -0.27398E+00  4168   0.268E+00    0.534E+00
DAV:   7    -0.130096694641E+04    0.26043E+00   -0.17787E+00  4784   0.275E+00    0.446E+00
DAV:   8    -0.130105435174E+04   -0.87405E-01   -0.87787E-01  3887   0.128E+00    0.478E+00
DAV:   9    -0.130101649047E+04    0.37861E-01   -0.35811E-01  4600   0.137E+00    0.288E+00
DAV:  10    -0.130106379059E+04   -0.47300E-01   -0.33075E-01  4104   0.962E-01    0.179E+00
DAV:  11    -0.130100783779E+04    0.55953E-01   -0.11817E-01  4056   0.790E-01    0.156E+00
DAV:  12    -0.130099355968E+04    0.14278E-01   -0.62618E-02  4064   0.518E-01    0.881E-01
DAV:  13    -0.130099660060E+04   -0.30409E-02   -0.35866E-02  4184   0.264E-01    0.454E-01
DAV:  14    -0.130099617840E+04    0.42219E-03   -0.37092E-03  3984   0.891E-02    0.459E-01
DAV:  15    -0.130099404486E+04    0.21335E-02   -0.24450E-03  4752   0.142E-01    0.424E-01
DAV:  16    -0.130099360040E+04    0.44446E-03   -0.36516E-03  3976   0.849E-02    0.208E-01
DAV:  17    -0.130099353232E+04    0.68082E-04   -0.74416E-04  4544   0.366E-02    0.135E-01
DAV:  18    -0.130099348013E+04    0.52188E-04   -0.15549E-04  4440   0.234E-02    0.977E-02
DAV:  19    -0.130099349709E+04   -0.16961E-04   -0.12213E-04  3984   0.145E-02    0.494E-02
DAV:  20    -0.130099348963E+04    0.74636E-05   -0.49881E-05  4224   0.163E-02    0.247E-02
DAV:  21    -0.130099349834E+04   -0.87111E-05   -0.42446E-05  3208   0.817E-03    0.173E-02
DAV:  22    -0.130099350243E+04   -0.40880E-05   -0.39728E-06  2048   0.415E-03
  21 F= -.13817131E+04 E0= -.13816398E+04  d E =-.656653E+01
       N       E                     dE             d eps       ncg     rms          rms(c)
DAV:   1    -0.128330624391E+04    0.17687E+02   -0.63254E+03  2956   0.128E+02    0.580E+01
DAV:   2    -0.133528362425E+04   -0.51977E+02   -0.30434E+02  3864   0.309E+01    0.525E+01
DAV:   3    -0.166844692824E+04   -0.33316E+03   -0.40771E+02  3972   0.516E+01    0.114E+02
DAV:   4    -0.130752209634E+04    0.36092E+03   -0.22247E+02  4544   0.371E+01    0.188E+01
DAV:   5    -0.133085038543E+04   -0.23328E+02   -0.14133E+02  3712   0.166E+01    0.228E+01
DAV:   6    -0.130882501589E+04    0.22025E+02   -0.42212E+01  4000   0.100E+01    0.162E+01
DAV:   7    -0.130917004860E+04   -0.34503E+00   -0.85100E+00  4072   0.395E+00    0.126E+01
DAV:   8    -0.130784292825E+04    0.13271E+01   -0.35140E+00  4784   0.403E+00    0.772E+00
DAV:   9    -0.130747605366E+04    0.36687E+00   -0.37191E+00  3816   0.296E+00    0.367E+00
DAV:  10    -0.130709145656E+04    0.38460E+00   -0.14246E+00  4200   0.251E+00    0.210E+00
DAV:  11    -0.130706590868E+04    0.25548E-01   -0.74312E-01  3904   0.118E+00    0.223E+00
DAV:  12    -0.130708326245E+04   -0.17354E-01   -0.18671E-01  4400   0.899E-01    0.263E+00
DAV:  13    -0.130709408670E+04   -0.10824E-01   -0.61446E-02  3696   0.298E-01    0.309E+00
DAV:  14    -0.130708998984E+04    0.40969E-02   -0.17406E-02  4816   0.262E-01    0.273E+00
DAV:  15    -0.130707947903E+04    0.10511E-01   -0.18665E-01  3944   0.800E-01    0.285E+00
DAV:  16    -0.130706673376E+04    0.12745E-01   -0.49442E-02  3528   0.350E-01    0.201E+00
DAV:  17    -0.130706072221E+04    0.60115E-02   -0.13469E-02  4592   0.204E-01    0.158E+00
DAV:  18    -0.130705416104E+04    0.65612E-02   -0.24070E-02  4608   0.269E-01    0.884E-01
DAV:  19    -0.130705284328E+04    0.13178E-02   -0.10300E-02  3816   0.147E-01    0.739E-01
DAV:  20    -0.130705235869E+04    0.48459E-03   -0.58291E-03  4656   0.115E-01    0.274E-01
DAV:  21    -0.130705332194E+04   -0.96326E-03   -0.94916E-04  3984   0.663E-02    0.222E-01
DAV:  22    -0.130705373494E+04   -0.41300E-03   -0.12385E-03  3936   0.816E-02    0.246E-01
DAV:  23    -0.130705384124E+04   -0.10629E-03   -0.12069E-03  3744   0.471E-02    0.146E-01
DAV:  24    -0.130705390611E+04   -0.64871E-04   -0.19014E-04  4152   0.151E-02    0.167E-01
DAV:  25    -0.130705382784E+04    0.78266E-04   -0.34853E-04  4672   0.454E-02    0.688E-02
DAV:  26    -0.130705392040E+04   -0.92556E-04   -0.29592E-04  3632   0.233E-02    0.370E-02
DAV:  27    -0.130705396745E+04   -0.47051E-04   -0.78429E-05  4008   0.108E-02    0.451E-02
DAV:  28    -0.130705396672E+04    0.72521E-06   -0.10022E-05  2280   0.882E-03
  22 F= -.13878685E+04 E0= -.13877920E+04  d E =-.127219E+02
       N       E                     dE             d eps       ncg     rms          rms(c)
DAV:   1    -0.130916572709E+04   -0.21118E+01   -0.19554E+03  2916   0.699E+01    0.284E+01
DAV:   2    -0.131665697280E+04   -0.74912E+01   -0.77857E+01  3504   0.126E+01    0.167E+01
DAV:   3    -0.134677503711E+04   -0.30118E+02   -0.30106E+01  4576   0.177E+01    0.238E+01
DAV:   4    -0.132042847512E+04    0.26347E+02   -0.18221E+01  4040   0.158E+01    0.121E+01
DAV:   5    -0.131653269402E+04    0.38958E+01   -0.24205E+01  4016   0.644E+00    0.781E+00
DAV:   6    -0.131609982045E+04    0.43287E+00   -0.56557E+00  3872   0.416E+00    0.593E+00
DAV:   7    -0.131598866333E+04    0.11116E+00   -0.12384E+00  4128   0.287E+00    0.800E+00
DAV:   8    -0.131562788453E+04    0.36078E+00   -0.23383E+00  4224   0.209E+00    0.145E+00
DAV:   9    -0.131568697419E+04   -0.59090E-01   -0.42892E-01  3688   0.967E-01    0.170E+00
DAV:  10    -0.131564555884E+04    0.41415E-01   -0.74304E-02  3568   0.484E-01    0.115E+00
DAV:  11    -0.131563406275E+04    0.11496E-01   -0.53895E-02  4056   0.323E-01    0.564E-01
DAV:  12    -0.131563205310E+04    0.20097E-02   -0.82026E-03  4264   0.154E-01    0.305E-01
DAV:  13    -0.131563323571E+04   -0.11826E-02   -0.30662E-03  3696   0.915E-02    0.229E-01
DAV:  14    -0.131563274152E+04    0.49419E-03   -0.15551E-03  4520   0.853E-02    0.656E-02
DAV:  15    -0.131563304398E+04   -0.30247E-03   -0.72393E-04  3376   0.340E-02    0.614E-02
DAV:  16    -0.131563307398E+04   -0.29995E-04   -0.22579E-04  4720   0.247E-02    0.336E-02
DAV:  17    -0.131563314420E+04   -0.70224E-04   -0.98051E-05  3336   0.111E-02    0.307E-02
DAV:  18    -0.131563318915E+04   -0.44943E-04   -0.88293E-06  2104   0.757E-03    0.249E-02
DAV:  19    -0.131563322011E+04   -0.30967E-04   -0.36089E-05  3224   0.112E-02    0.198E-02
DAV:  20    -0.131563323997E+04   -0.19861E-04   -0.15999E-05  2392   0.525E-03    0.212E-02
DAV:  21    -0.131563327487E+04   -0.34899E-04   -0.44237E-06  1928   0.433E-03    0.191E-02
DAV:  22    -0.131563330473E+04   -0.29861E-04   -0.80600E-06  2152   0.412E-03    0.187E-02
DAV:  23    -0.131563332979E+04   -0.25060E-04   -0.24059E-06  1768   0.246E-03    0.183E-02
DAV:  24    -0.131563335615E+04   -0.26361E-04   -0.15316E-06  1840   0.300E-03    0.181E-02
DAV:  25    -0.131563337343E+04   -0.17280E-04   -0.19873E-06  1744   0.157E-03    0.182E-02
DAV:  26    -0.131563338450E+04   -0.11069E-04   -0.47782E-07  1720   0.183E-03    0.180E-02
DAV:  27    -0.131563338903E+04   -0.45287E-05   -0.13969E-06  1696   0.190E-03
  23 F= -.13964510E+04 E0= -.13964009E+04  d E =-.858248E+01
       N       E                     dE             d eps       ncg     rms          rms(c)
DAV:   1    -0.130567457863E+04    0.99588E+01   -0.39375E+03  2932   0.101E+02    0.429E+01
DAV:   2    -0.131997688459E+04   -0.14302E+02   -0.16840E+02  3320   0.182E+01    0.194E+01
DAV:   3    -0.132507886122E+04   -0.51020E+01   -0.65766E+00  3728   0.825E+00    0.153E+01
DAV:   4    -0.133173473104E+04   -0.66559E+01   -0.49278E+00  3888   0.117E+01    0.145E+01
DAV:   5    -0.132095714399E+04    0.10778E+02   -0.76698E+00  4024   0.838E+00    0.525E+00
DAV:   6    -0.132068326578E+04    0.27388E+00   -0.84508E+00  3911   0.501E+00    0.405E+00
DAV:   7    -0.131998488874E+04    0.69838E+00   -0.26853E+00  3455   0.248E+00    0.332E+00
DAV:   8    -0.131994261207E+04    0.42277E-01   -0.56533E-01  3704   0.106E+00    0.190E+00
DAV:   9    -0.131988264588E+04    0.59966E-01   -0.23697E-01  4544   0.874E-01    0.800E-01
DAV:  10    -0.131989379905E+04   -0.11153E-01   -0.13846E-01  3696   0.463E-01    0.584E-01
DAV:  11    -0.131989354275E+04    0.25629E-03   -0.24708E-02  3776   0.275E-01    0.472E-01
DAV:  12    -0.131989324171E+04    0.30104E-03   -0.10077E-02  3792   0.127E-01    0.220E-01
DAV:  13    -0.131989291804E+04    0.32367E-03   -0.20653E-03  4432   0.944E-02    0.122E-01
DAV:  14    -0.131989320257E+04   -0.28453E-03   -0.22607E-03  3896   0.616E-02    0.100E-01
DAV:  15    -0.131989322643E+04   -0.23861E-04   -0.15778E-04  4296   0.324E-02    0.675E-02
DAV:  16    -0.131989335082E+04   -0.12439E-03   -0.53366E-04  4416   0.331E-02    0.444E-02
DAV:  17    -0.131989338157E+04   -0.30747E-04   -0.10078E-04  3528   0.186E-02    0.274E-02
DAV:  18    -0.131989345088E+04   -0.69310E-04   -0.57488E-05  3192   0.903E-03    0.214E-02
DAV:  19    -0.131989348283E+04   -0.31946E-04   -0.57897E-06  1968   0.453E-03    0.188E-02
DAV:  20    -0.131989352921E+04   -0.46383E-04   -0.22084E-06  1832   0.263E-03    0.182E-02
DAV:  21    -0.131989360548E+04   -0.76271E-04   -0.38129E-06  1896   0.254E-03    0.182E-02
DAV:  22    -0.131989365101E+04   -0.45531E-04   -0.19153E-06  1776   0.243E-03    0.180E-02
DAV:  23    -0.131989368565E+04   -0.34636E-04   -0.15760E-06  1792   0.222E-03    0.179E-02
DAV:  24    -0.131989370759E+04   -0.21939E-04   -0.20098E-06  1744   0.242E-03    0.179E-02
DAV:  25    -0.131989371378E+04   -0.61949E-05   -0.11360E-06  1704   0.170E-03    0.178E-02
DAV:  26    -0.131989372284E+04   -0.90559E-05   -0.44834E-07  1704   0.932E-04    0.177E-02
DAV:  27    -0.131989372884E+04   -0.60074E-05   -0.23786E-07  1704   0.989E-04    0.177E-02
DAV:  28    -0.131989373212E+04   -0.32756E-05   -0.32041E-07  1664   0.966E-04
  24 F= -.14007094E+04 E0= -.14006587E+04  d E =-.128409E+02
       N       E                     dE             d eps       ncg     rms          rms(c)
DAV:   1    -0.132201651534E+04   -0.21228E+01   -0.96326E+02  2948   0.478E+01    0.232E+01
DAV:   2    -0.132515173008E+04   -0.31352E+01   -0.34399E+01  3440   0.879E+00    0.189E+01
DAV:   3    -0.133289965564E+04   -0.77479E+01   -0.33645E+00  3846   0.786E+00    0.146E+01
DAV:   4    -0.133692465206E+04   -0.40250E+01   -0.35105E+00  4232   0.120E+01    0.136E+01
DAV:   5    -0.132496002134E+04    0.11965E+02   -0.60541E+00  4376   0.710E+00    0.242E+00
DAV:   6    -0.132528584854E+04   -0.32583E+00   -0.40550E+00  3848   0.264E+00    0.182E+00
DAV:   7    -0.132502834551E+04    0.25750E+00   -0.70119E-01  3480   0.132E+00    0.159E+00
DAV:   8    -0.132503733837E+04   -0.89929E-02   -0.10105E-01  3648   0.416E-01    0.113E+00
DAV:   9    -0.132501236488E+04    0.24973E-01   -0.54700E-02  4056   0.374E-01    0.560E-01
DAV:  10    -0.132501028356E+04    0.20813E-02   -0.22101E-02  3840   0.187E-01    0.323E-01
DAV:  11    -0.132501022354E+04    0.60018E-04   -0.62883E-03  4128   0.116E-01    0.224E-01
DAV:  12    -0.132500981891E+04    0.40463E-03   -0.15556E-03  3720   0.673E-02    0.131E-01
DAV:  13    -0.132500976644E+04    0.52464E-04   -0.84808E-04  4328   0.392E-02    0.474E-02
DAV:  14    -0.132500976663E+04   -0.18667E-06   -0.15314E-04  4096   0.201E-02    0.259E-02
DAV:  15    -0.132500977248E+04   -0.58522E-05   -0.39221E-05  3640   0.109E-02    0.198E-02
DAV:  16    -0.132500977782E+04   -0.53389E-05   -0.28803E-05  2752   0.650E-03    0.192E-02
DAV:  17    -0.132500977835E+04   -0.52422E-06   -0.37913E-06  1816   0.446E-03
  25 F= -.14058052E+04 E0= -.14057512E+04  d E =-.509583E+01
       N       E                     dE             d eps       ncg     rms          rms(c)
DAV:   1    -0.132073490820E+04    0.42749E+01   -0.19081E+03  2932   0.679E+01    0.315E+01
DAV:   2    -0.132838453981E+04   -0.76496E+01   -0.75025E+01  3504   0.130E+01    0.318E+01
DAV:   3    -0.134456075464E+04   -0.16176E+02   -0.16144E+01  3975   0.164E+01    0.229E+01
DAV:   4    -0.134911541198E+04   -0.45547E+01   -0.13748E+01  4656   0.172E+01    0.226E+01
DAV:   5    -0.132816738289E+04    0.20948E+02   -0.15791E+01  3944   0.100E+01    0.155E+01
DAV:   6    -0.133423376027E+04   -0.60664E+01   -0.29274E+01  4168   0.918E+00    0.806E+00
DAV:   7    -0.132945207449E+04    0.47817E+01   -0.16491E+01  3927   0.808E+00    0.268E+01
DAV:   8    -0.132680128369E+04    0.26508E+01   -0.48373E+00  3648   0.543E+00    0.662E+00
DAV:   9    -0.132761022784E+04   -0.80894E+00   -0.15666E+00  3672   0.138E+00    0.416E+00
DAV:  10    -0.132746103464E+04    0.14919E+00   -0.11302E-01  4520   0.686E-01    0.388E+00
DAV:  11    -0.132732062530E+04    0.14041E+00   -0.15444E-01  4800   0.101E+00    0.377E+00
DAV:  12    -0.132727287399E+04    0.47751E-01   -0.24072E-01  4152   0.925E-01    0.386E+00
DAV:  13    -0.132728253398E+04   -0.96600E-02   -0.12693E-01  3928   0.472E-01    0.419E+00
DAV:  14    -0.132728304516E+04   -0.51118E-03   -0.15648E-02  3838   0.166E-01    0.414E+00
DAV:  15    -0.132728878484E+04   -0.57397E-02   -0.13081E-02  4072   0.260E-01    0.372E+00
DAV:  16    -0.132886215301E+04   -0.15734E+01   -0.54513E+00  4128   0.126E+00    0.272E+01
DAV:  17    -0.132631513978E+04    0.25470E+01   -0.39654E-01  3864   0.186E+00    0.382E+00
DAV:  18    -0.132722200928E+04   -0.90687E+00   -0.64194E-02  3384   0.691E-01    0.252E+00
DAV:  19    -0.132725200562E+04   -0.29996E-01   -0.67044E-02  3664   0.471E-01    0.194E+00
DAV:  20    -0.132725805789E+04   -0.60523E-02   -0.18970E-02  3600   0.164E-01    0.163E+00
DAV:  21    -0.132725765101E+04    0.40688E-03   -0.77763E-04  4488   0.344E-02    0.167E+00
DAV:  22    -0.132725399374E+04    0.36573E-02   -0.26704E-03  4400   0.155E-01    0.147E+00
DAV:  23    -0.132725316286E+04    0.83089E-03   -0.52977E-03  3608   0.101E-01    0.114E+00
DAV:  24    -0.132725251326E+04    0.64960E-03   -0.18051E-03  3752   0.656E-02    0.833E-01
DAV:  25    -0.132725224450E+04    0.26876E-03   -0.51116E-04  3758   0.280E-02    0.689E-01
DAV:  26    -0.132725212363E+04    0.12087E-03   -0.18458E-04  4048   0.413E-02    0.584E-01
DAV:  27    -0.132725285692E+04   -0.73329E-03   -0.13518E-03  4048   0.109E-01    0.458E-01
DAV:  28    -0.132725351517E+04   -0.65825E-03   -0.22542E-03  3904   0.724E-02    0.372E-01
DAV:  29    -0.132725382414E+04   -0.30897E-03   -0.86809E-04  3760   0.326E-02    0.392E-01
DAV:  30    -0.132725375025E+04    0.73894E-04   -0.43678E-05  3552   0.104E-02    0.374E-01
DAV:  31    -0.132725329110E+04    0.45914E-03   -0.66643E-05  3792   0.256E-02    0.346E-01
DAV:  32    -0.132725457980E+04   -0.12887E-02   -0.27767E-04  3792   0.474E-02    0.394E-01
DAV:  33    -0.132725536291E+04   -0.78311E-03   -0.53950E-04  4008   0.402E-02    0.453E-01
DAV:  34    -0.132725377369E+04    0.15892E-02   -0.40568E-04  3648   0.520E-02    0.365E-01
DAV:  35    -0.132725415610E+04   -0.38241E-03   -0.24775E-04  4064   0.227E-02    0.371E-01
DAV:  36    -0.132725411218E+04    0.43921E-04   -0.42643E-05  2968   0.942E-03    0.369E-01
DAV:  37    -0.132725425607E+04   -0.14390E-03   -0.79701E-06  1784   0.582E-03    0.377E-01
DAV:  38    -0.132725318263E+04    0.10734E-02   -0.17802E-04  3864   0.408E-02    0.306E-01
DAV:  39    -0.132725249847E+04    0.68416E-03   -0.34900E-04  4088   0.393E-02    0.249E-01
DAV:  40    -0.132725237306E+04    0.12541E-03   -0.24559E-04  3544   0.190E-02    0.223E-01
DAV:  41    -0.132725231143E+04    0.61631E-04   -0.22600E-05  2592   0.688E-03    0.215E-01
DAV:  42    -0.132725214530E+04    0.16613E-03   -0.16575E-05  2976   0.117E-02    0.200E-01
DAV:  43    -0.132725187221E+04    0.27308E-03   -0.74941E-05  4472   0.233E-02    0.172E-01
DAV:  44    -0.132725174906E+04    0.12315E-03   -0.10768E-04  3696   0.165E-02    0.151E-01
DAV:  45    -0.132725159300E+04    0.15606E-03   -0.26888E-05  3384   0.187E-02    0.135E-01
DAV:  46    -0.132725152161E+04    0.71397E-04   -0.89408E-05  3720   0.142E-02    0.114E-01
DAV:  47    -0.132725152349E+04   -0.18835E-05   -0.21887E-05  2488   0.562E-03
  26 F= -.14080163E+04 E0= -.14079558E+04  d E =-.730687E+01
       N       E                     dE             d eps       ncg     rms          rms(c)
DAV:   1    -0.132907069071E+04   -0.18192E+01   -0.14369E+02  2916   0.185E+01    0.487E+00
DAV:   2    -0.132968916301E+04   -0.61847E+00   -0.41499E+00  3568   0.329E+00    0.860E+00
DAV:   3    -0.132971083964E+04   -0.21677E-01   -0.46616E+00  3567   0.317E+00    0.271E+00
DAV:   4    -0.133068389389E+04   -0.97305E+00   -0.69197E-01  3999   0.329E+00    0.358E+00
DAV:   5    -0.132942377758E+04    0.12601E+01   -0.20661E-01  4007   0.220E+00    0.159E+00
DAV:   6    -0.132944833224E+04   -0.24555E-01   -0.26953E-01  3871   0.855E-01    0.103E+00
DAV:   7    -0.132944828980E+04    0.42440E-04   -0.11429E-01  3831   0.752E-01    0.252E+00
DAV:   8    -0.132942067630E+04    0.27613E-01   -0.98266E-02  3608   0.548E-01    0.672E-01
DAV:   9    -0.132943162921E+04   -0.10953E-01   -0.16538E-02  3816   0.191E-01    0.369E-01
DAV:  10    -0.132943204580E+04   -0.41659E-03   -0.23656E-03  3864   0.129E-01    0.780E-02
DAV:  11    -0.132943220416E+04   -0.15835E-03   -0.20375E-03  3696   0.626E-02    0.603E-02
DAV:  12    -0.132943219972E+04    0.44380E-05   -0.19865E-04  3944   0.205E-02    0.551E-02
DAV:  13    -0.132943218464E+04    0.15080E-04   -0.52599E-05  4056   0.167E-02    0.375E-02
DAV:  14    -0.132943218839E+04   -0.37469E-05   -0.10146E-04  4048   0.163E-02    0.317E-02
DAV:  15    -0.132943218646E+04    0.19275E-05   -0.21456E-05  2776   0.616E-03
  27 F= -.14101837E+04 E0= -.14101230E+04  d E =-.216739E+01
       N       E                     dE             d eps       ncg     rms          rms(c)
DAV:   1    -0.133038214097E+04   -0.94995E+00   -0.13013E+03  2924   0.568E+01    0.181E+01
DAV:   2    -0.134059201414E+04   -0.10210E+02   -0.45761E+01  3600   0.111E+01    0.286E+01
DAV:   3    -0.134197902437E+04   -0.13870E+01   -0.12249E+01  3622   0.125E+01    0.106E+01
DAV:   4    -0.135040526308E+04   -0.84262E+01   -0.82097E+00  4192   0.126E+01    0.132E+01
DAV:   5    -0.133434282761E+04    0.16062E+02   -0.81459E+00  3968   0.776E+00    0.585E+00
DAV:   6    -0.133440068593E+04   -0.57858E-01   -0.53036E+00  3959   0.323E+00    0.379E+00
DAV:   7    -0.133761497890E+04   -0.32143E+01   -0.24334E+00  4039   0.298E+00    0.271E+01
DAV:   8    -0.133365638509E+04    0.39586E+01   -0.11989E+00  3760   0.325E+00    0.467E+00
DAV:   9    -0.133463075943E+04   -0.97437E+00   -0.68974E-01  3712   0.122E+00    0.332E+00
DAV:  10    -0.133460674770E+04    0.24012E-01   -0.13839E-01  3800   0.481E-01    0.316E+00
DAV:  11    -0.133463682289E+04   -0.30075E-01   -0.25085E-02  3872   0.250E-01    0.315E+00
DAV:  12    -0.133457251673E+04    0.64306E-01   -0.33899E-02  4039   0.399E-01    0.302E+00
DAV:  13    -0.133454689536E+04    0.25621E-01   -0.21389E-02  3768   0.221E-01    0.289E+00
DAV:  14    -0.133452172594E+04    0.25169E-01   -0.87076E-03  4160   0.163E-01    0.277E+00
DAV:  15    -0.133451443241E+04    0.72935E-02   -0.45679E-03  3808   0.904E-02    0.272E+00
DAV:  16    -0.133451320410E+04    0.12283E-02   -0.53448E-04  3952   0.306E-02    0.274E+00
DAV:  17    -0.133449466133E+04    0.18543E-01   -0.25423E-03  3920   0.113E-01    0.259E+00
DAV:  18    -0.133447341511E+04    0.21246E-01   -0.31123E-03  3952   0.118E-01    0.243E+00
DAV:  19    -0.133446388974E+04    0.95254E-02   -0.24915E-03  3792   0.716E-02    0.237E+00
DAV:  20    -0.133446261664E+04    0.12731E-02   -0.62125E-04  3512   0.256E-02    0.236E+00
DAV:  21    -0.133445624072E+04    0.63759E-02   -0.13697E-04  4176   0.345E-02    0.232E+00
DAV:  22    -0.133442354702E+04    0.32694E-01   -0.34820E-03  4240   0.187E-01    0.210E+00
DAV:  23    -0.133441012160E+04    0.13425E-01   -0.55085E-03  3728   0.112E-01    0.199E+00
DAV:  24    -0.133441261326E+04   -0.24917E-02   -0.12268E-03  3256   0.424E-02    0.200E+00
DAV:  25    -0.133441197577E+04    0.63748E-03   -0.87567E-05  3952   0.132E-02    0.200E+00
DAV:  26    -0.133438695884E+04    0.25017E-01   -0.24833E-03  4096   0.161E-01    0.178E+00
DAV:  27    -0.133435416535E+04    0.32793E-01   -0.10307E-02  4216   0.263E-01    0.145E+00
DAV:  28    -0.133434196008E+04    0.12205E-01   -0.13019E-02  3856   0.168E-01    0.120E+00
DAV:  29    -0.133434339218E+04   -0.14321E-02   -0.31573E-03  3248   0.576E-02    0.117E+00
DAV:  30    -0.133434211777E+04    0.12744E-02   -0.12299E-04  4040   0.180E-02    0.114E+00
DAV:  31    -0.133434266851E+04   -0.55074E-03   -0.29880E-05  2720   0.726E-03    0.115E+00
DAV:  32    -0.133434772113E+04   -0.50526E-02   -0.65003E-04  3952   0.508E-02    0.124E+00
DAV:  33    -0.133434595533E+04    0.17658E-02   -0.11922E-04  3184   0.192E-02    0.122E+00
DAV:  34    -0.133434418088E+04    0.17744E-02   -0.11454E-04  3480   0.217E-02    0.120E+00
DAV:  35    -0.133434458206E+04   -0.40117E-03   -0.12804E-04  3928   0.162E-02    0.121E+00
DAV:  36    -0.133434215258E+04    0.24295E-02   -0.16657E-04  3728   0.274E-02    0.116E+00
DAV:  37    -0.133434437950E+04   -0.22269E-02   -0.23198E-04  3512   0.324E-02    0.122E+00
DAV:  38    -0.133433967439E+04    0.47051E-02   -0.13954E-03  3600   0.634E-02    0.117E+00
DAV:  39    -0.133434189118E+04   -0.22168E-02   -0.44977E-04  3512   0.339E-02    0.121E+00
DAV:  40    -0.133434284933E+04   -0.95815E-03   -0.83983E-05  3376   0.151E-02    0.124E+00
DAV:  41    -0.133434393206E+04   -0.10827E-02   -0.10472E-04  3584   0.149E-02    0.128E+00
DAV:  42    -0.133434447918E+04   -0.54712E-03   -0.26737E-04  3600   0.249E-02    0.134E+00
DAV:  43    -0.133434394003E+04    0.53915E-03   -0.71393E-05  3176   0.117E-02    0.131E+00
DAV:  44    -0.133434350067E+04    0.43936E-03   -0.82544E-06  1752   0.584E-03    0.130E+00
DAV:  45    -0.133433337042E+04    0.10130E-01   -0.69977E-03  4984   0.170E-01    0.667E-01
DAV:  46    -0.133433800125E+04   -0.46308E-02   -0.58509E-03  3200   0.920E-02    0.799E-01
DAV:  47    -0.133433372950E+04    0.42718E-02   -0.35456E-03  3976   0.115E-01    0.204E-01
DAV:  48    -0.133433625644E+04   -0.25269E-02   -0.20198E-03  3280   0.561E-02    0.486E-01
DAV:  49    -0.133433488902E+04    0.13674E-02   -0.12939E-03  3784   0.660E-02    0.190E-01
[...]
DAV:   1    -0.134516493531E+04   -0.29494E+00   -0.26144E+02  2932   0.245E+01    0.194E+01
DAV:   2    -0.137587046735E+04   -0.30706E+02   -0.94092E+01  4264   0.184E+01    0.416E+01
DAV:   3    -0.136200508467E+04    0.13865E+02   -0.78856E+01  4392   0.198E+01    0.334E+01
DAV:   4    -0.134742099999E+04    0.14584E+02   -0.22502E+01  3984   0.116E+01    0.135E+01
DAV:   5    -0.134728240263E+04    0.13860E+00   -0.91581E+00  3736   0.342E+00    0.111E+01
DAV:   6    -0.134743437695E+04   -0.15197E+00   -0.15160E+00  4176   0.247E+00    0.100E+01
DAV:   7    -0.134599911363E+04    0.14353E+01   -0.59770E-01  4088   0.229E+00    0.812E+00
DAV:   8    -0.134571367496E+04    0.28544E+00   -0.97833E-01  4648   0.237E+00    0.174E+01
DAV:   9    -0.134490414990E+04    0.80953E+00   -0.31181E+00  3592   0.131E+00    0.554E+00
DAV:  10    -0.134532633800E+04   -0.42219E+00   -0.36351E-01  3864   0.862E-01    0.124E+00
DAV:  11    -0.134538476264E+04   -0.58425E-01   -0.94189E-02  3792   0.570E-01    0.460E+00
DAV:  12    -0.134533007242E+04    0.54690E-01   -0.55111E-01  3928   0.506E-01    0.880E+00
DAV:  13    -0.134516702272E+04    0.16305E+00   -0.53580E-01  3544   0.387E-01    0.264E+00
DAV:  14    -0.134531429718E+04   -0.14727E+00   -0.15935E-02  3424   0.254E-01    0.868E-01
DAV:  15    -0.134531117307E+04    0.31241E-02   -0.69838E-03  4536   0.162E-01    0.119E+00
DAV:  16    -0.134531871385E+04   -0.75408E-02   -0.13458E-02  3464   0.110E-01    0.249E+00
DAV:  17    -0.134529232280E+04    0.26391E-01   -0.26533E-03  3320   0.114E-01    0.177E+00
DAV:  18    -0.134529123084E+04    0.10920E-02   -0.12572E-03  4392   0.667E-02    0.117E+00
DAV:  19    -0.134530132800E+04   -0.10097E-01   -0.70992E-04  3656   0.452E-02    0.161E+00
DAV:  20    -0.134529388090E+04    0.74471E-02   -0.11101E-03  4880   0.956E-02    0.431E-01
DAV:  21    -0.134530671744E+04   -0.12837E-01   -0.12749E-03  3304   0.465E-02    0.356E-01
DAV:  22    -0.134530850827E+04   -0.17908E-02   -0.94679E-05  4208   0.187E-02    0.110E-01
DAV:  23    -0.134530984599E+04   -0.13377E-02   -0.10561E-04  3304   0.216E-02    0.472E-02
DAV:  24    -0.134530985484E+04   -0.88472E-05   -0.49619E-05  3928   0.130E-02    0.653E-02
DAV:  25    -0.134530985604E+04   -0.12076E-05   -0.56539E-05  3896   0.127E-02    0.190E-01
DAV:  26    -0.134530958972E+04    0.26632E-03   -0.20139E-05  2536   0.713E-03    0.117E-01
DAV:  27    -0.134530970539E+04   -0.11566E-03   -0.37175E-06  1728   0.412E-03    0.169E-01
DAV:  28    -0.134530958553E+04    0.11985E-03   -0.63502E-06  1912   0.514E-03    0.141E-01
DAV:  29    -0.134530962464E+04   -0.39107E-04   -0.62700E-06  1856   0.432E-03    0.586E-02
DAV:  30    -0.134530979517E+04   -0.17053E-03   -0.51688E-06  1768   0.411E-03    0.392E-02
DAV:  31    -0.134530983939E+04   -0.44226E-04   -0.19209E-06  1680   0.266E-03    0.209E-02
DAV:  32    -0.134530986433E+04   -0.24931E-04   -0.12674E-06  1680   0.206E-03    0.113E-02
DAV:  33    -0.134530987926E+04   -0.14932E-04   -0.85701E-07  1664   0.158E-03    0.187E-02
DAV:  34    -0.134530988740E+04   -0.81406E-05   -0.52773E-07  1656   0.129E-03    0.231E-02
DAV:  35    -0.134530989040E+04   -0.29984E-05   -0.21204E-07  1656   0.105E-03
  35 F= -.14259665E+04 E0= -.14258446E+04  d E =-.174551E+01
       N       E                     dE             d eps       ncg     rms          rms(c)
DAV:   1    -0.134720691213E+04   -0.18970E+01   -0.13157E+02  3006   0.169E+01    0.177E+01
DAV:   2    -0.137012714289E+04   -0.22920E+02   -0.22025E+01  4320   0.158E+01    0.204E+01
DAV:   3    -0.137545043228E+04   -0.53233E+01   -0.12037E+01  4479   0.178E+01    0.361E+01
DAV:   4    -0.135072177115E+04    0.24729E+02   -0.14889E+01  3936   0.964E+00    0.144E+01
DAV:   5    -0.134935860758E+04    0.13632E+01   -0.50587E+00  4024   0.431E+00    0.122E+01
DAV:   6    -0.134678332954E+04    0.25753E+01   -0.39196E+00  4312   0.398E+00    0.903E+00
DAV:   7    -0.134958653299E+04   -0.28032E+01   -0.38548E+00  4168   0.349E+00    0.185E+01
DAV:   8    -0.134654471552E+04    0.30418E+01   -0.13839E+00  3904   0.321E+00    0.904E+00
DAV:   9    -0.134726338637E+04   -0.71867E+00   -0.86003E-01  3800   0.120E+00    0.888E+00
DAV:  10    -0.134679329070E+04    0.47010E+00   -0.12798E-01  3736   0.655E-01    0.848E+00
DAV:  11    -0.134655165892E+04    0.24163E+00   -0.32807E-01  4696   0.978E-01    0.134E+01
DAV:  12    -0.134632633736E+04    0.22532E+00   -0.23504E+00  3344   0.698E-01    0.619E+00
DAV:  13    -0.134665405514E+04   -0.32772E+00   -0.18713E+00  3576   0.556E-01    0.111E+01
DAV:  14    -0.134629804572E+04    0.35601E+00   -0.49748E-01  3264   0.359E-01    0.220E+00
DAV:  15    -0.134651876476E+04   -0.22072E+00   -0.24388E-02  3280   0.180E-01    0.389E+00
DAV:  16    -0.134648955402E+04    0.29211E-01   -0.53192E-03  3952   0.591E-02    0.233E+00
DAV:  17    -0.134652678807E+04   -0.37234E-01   -0.11361E-03  3384   0.547E-02    0.212E+00
DAV:  18    -0.134655031309E+04   -0.23525E-01   -0.38264E-02  4592   0.130E-01    0.350E+00
DAV:  19    -0.134653585445E+04    0.14459E-01   -0.85481E-03  3032   0.190E-01    0.168E+00
DAV:  20    -0.134654466460E+04   -0.88102E-02   -0.14140E-03  4016   0.391E-02    0.757E-01
DAV:  21    -0.134655991615E+04   -0.15252E-01   -0.38519E-04  3032   0.364E-02    0.990E-01
DAV:  22    -0.134655850567E+04    0.14105E-02   -0.54847E-04  4080   0.204E-02    0.280E-01
DAV:  23    -0.134656422595E+04   -0.57203E-02   -0.19506E-04  3024   0.247E-02    0.497E-01
DAV:  24    -0.134656359595E+04    0.62999E-03   -0.12816E-05  1888   0.445E-03    0.395E-01
DAV:  25    -0.134656398328E+04   -0.38733E-03   -0.24535E-05  1832   0.513E-03    0.224E-01
DAV:  26    -0.134656483267E+04   -0.84939E-03   -0.18389E-05  2448   0.761E-03    0.166E-01
DAV:  27    -0.134656514261E+04   -0.30995E-03   -0.25526E-06  1680   0.326E-03    0.167E-01
DAV:  28    -0.134656518116E+04   -0.38551E-04   -0.91922E-06  1624   0.296E-03    0.637E-02
DAV:  29    -0.134656538793E+04   -0.20677E-03   -0.13407E-05  1920   0.507E-03    0.436E-02
DAV:  30    -0.134656541299E+04   -0.25057E-04   -0.51911E-06  1752   0.460E-03    0.263E-02
DAV:  31    -0.134656540598E+04    0.70013E-05   -0.58557E-07  1608   0.142E-03    0.300E-02
DAV:  32    -0.134656540106E+04    0.49242E-05   -0.92687E-07  1608   0.141E-03
  36 F= -.14271993E+04 E0= -.14270746E+04  d E =-.123280E+01
       N       E                     dE             d eps       ncg     rms          rms(c)
DAV:   1    -0.134792067079E+04   -0.13553E+01   -0.11462E+03  2940   0.512E+01    0.192E+01
DAV:   2    -0.137156232374E+04   -0.23642E+02   -0.45969E+01  3792   0.173E+01    0.255E+01
DAV:   3    -0.137009981117E+04    0.14625E+01   -0.14300E+01  3820   0.166E+01    0.368E+01
DAV:   4    -0.135101618187E+04    0.19084E+02   -0.11590E+01  3712   0.877E+00    0.196E+01
DAV:   5    -0.134972176375E+04    0.12944E+01   -0.47814E+00  4112   0.582E+00    0.170E+01
DAV:   6    -0.136238180262E+04   -0.12660E+02   -0.74295E+01  4472   0.737E+00    0.973E+01
DAV:   7    -0.134854499391E+04    0.13837E+02   -0.49976E+00  3511   0.479E+00    0.165E+01
DAV:   8    -0.134794350682E+04    0.60149E+00   -0.20317E+00  4040   0.203E+00    0.110E+01
DAV:   9    -0.134955672363E+04   -0.16132E+01   -0.67813E+00  4120   0.162E+00    0.153E+01
DAV:  10    -0.135049375868E+04   -0.93704E+00   -0.11434E+00  4424   0.358E+00    0.149E+01
DAV:  11    -0.134865279518E+04    0.18410E+01   -0.31825E-01  3680   0.152E+00    0.138E+01
DAV:  12    -0.134791034674E+04    0.74245E+00   -0.27846E-01  4160   0.112E+00    0.104E+01
DAV:  13    -0.134864112702E+04   -0.73078E+00   -0.26166E-01  3280   0.645E-01    0.130E+01
DAV:  14    -0.134816715261E+04    0.47397E+00   -0.75466E-02  3312   0.357E-01    0.830E+00
DAV:  15    -0.134827532127E+04   -0.10817E+00   -0.19464E-01  3544   0.225E-01    0.680E+00
DAV:  16    -0.134848227237E+04   -0.20695E+00   -0.67963E-01  3600   0.294E-01    0.110E+01
DAV:  17    -0.134820148956E+04    0.28078E+00   -0.13877E-01  3336   0.291E-01    0.659E+00
DAV:  18    -0.134830922768E+04   -0.10774E+00   -0.10188E-01  3728   0.160E-01    0.614E+00
DAV:  19    -0.134829614485E+04    0.13083E-01   -0.16758E-02  3008   0.153E-01    0.576E+00
DAV:  20    -0.134831337987E+04   -0.17235E-01   -0.14628E-02  3016   0.717E-02    0.539E+00
DAV:  21    -0.134829924770E+04    0.14132E-01   -0.94923E-03  3752   0.586E-02    0.530E+00
DAV:  22    -0.134826994524E+04    0.29302E-01   -0.17087E-03  2984   0.506E-02    0.480E+00
DAV:  23    -0.134828555756E+04   -0.15612E-01   -0.73825E-03  3528   0.798E-02    0.403E+00
DAV:  24    -0.134827147259E+04    0.14085E-01   -0.25753E-03  3376   0.554E-02    0.320E+00
DAV:  25    -0.134828523710E+04   -0.13765E-01   -0.61082E-03  3376   0.574E-02    0.239E+00
DAV:  26    -0.134830446270E+04   -0.19226E-01   -0.24896E-03  3208   0.854E-02    0.177E+00
DAV:  27    -0.134830118886E+04    0.32738E-02   -0.18532E-03  3600   0.590E-02    0.104E+00
DAV:  28    -0.134830035922E+04    0.82964E-03   -0.32049E-03  3928   0.454E-02    0.384E-01
DAV:  29    -0.134830286415E+04   -0.25049E-02   -0.60697E-04  3072   0.266E-02    0.392E-01
DAV:  30    -0.134830271042E+04    0.15373E-03   -0.34275E-05  2392   0.575E-03    0.336E-01
DAV:  31    -0.134830274746E+04   -0.37040E-04   -0.41408E-06  1752   0.242E-03    0.314E-01
DAV:  32    -0.134830257052E+04    0.17694E-03   -0.43507E-04  3384   0.160E-02    0.621E-02
DAV:  33    -0.134830277895E+04   -0.20843E-03   -0.67687E-05  2824   0.965E-03    0.554E-02
DAV:  34    -0.134830278425E+04   -0.52989E-05   -0.41669E-06  1736   0.306E-03    0.734E-02
DAV:  35    -0.134830277844E+04    0.58123E-05   -0.31816E-05  1632   0.236E-03    0.195E-02
DAV:  36    -0.134830277876E+04   -0.32317E-06   -0.10208E-05  1640   0.307E-03
  37 F= -.14288734E+04 E0= -.14287475E+04  d E =-.290693E+01
       N       E                     dE             d eps       ncg     rms          rms(c)
DAV:   1    -0.134912300753E+04   -0.82023E+00   -0.22726E+01  2982   0.684E+00    0.986E+00
DAV:   2    -0.136489618233E+04   -0.15773E+02   -0.23285E+01  4503   0.980E+00    0.195E+01
DAV:   3    -0.135656678679E+04    0.83294E+01   -0.34713E+00  4288   0.102E+01    0.279E+01
DAV:   4    -0.135074442337E+04    0.58224E+01   -0.67734E+00  3864   0.463E+00    0.155E+01
DAV:   5    -0.134970153988E+04    0.10429E+01   -0.98254E-01  3952   0.237E+00    0.142E+01
DAV:   6    -0.134917194421E+04    0.52960E+00   -0.12775E+00  4568   0.265E+00    0.107E+01
DAV:   7    -0.134964109857E+04   -0.46915E+00   -0.84235E-01  3359   0.123E+00    0.105E+01
DAV:   8    -0.134853424884E+04    0.11068E+01   -0.14120E-01  4232   0.125E+00    0.190E+00
DAV:   9    -0.134883305475E+04   -0.29881E+00   -0.13863E-01  3192   0.379E-01    0.158E+00
DAV:  10    -0.134887094608E+04   -0.37891E-01   -0.18128E-01  4696   0.187E-01    0.541E+00
DAV:  11    -0.134879160479E+04    0.79341E-01   -0.11175E+00  3792   0.380E-01    0.604E+00
DAV:  12    -0.134875601605E+04    0.35589E-01   -0.24458E-01  3208   0.274E-01    0.121E+00
DAV:  13    -0.134884340251E+04   -0.87386E-01   -0.18583E-02  3288   0.133E-01    0.231E+00
DAV:  14    -0.134881069872E+04    0.32704E-01   -0.46115E-03  3368   0.727E-02    0.154E+00
DAV:  15    -0.134881645888E+04   -0.57602E-02   -0.26141E-04  4208   0.179E-02    0.141E+00
DAV:  16    -0.134882339938E+04   -0.69405E-02   -0.33766E-03  4008   0.312E-02    0.217E+00
DAV:  17    -0.134880380857E+04    0.19591E-01   -0.50046E-03  3672   0.424E-02    0.126E+00
DAV:  18    -0.134882144790E+04   -0.17639E-01   -0.98658E-04  3560   0.358E-02    0.157E+00
DAV:  19    -0.134881750366E+04    0.39442E-02   -0.44322E-04  3544   0.143E-02    0.132E+00
DAV:  20    -0.134882157487E+04   -0.40712E-02   -0.78251E-05  2816   0.110E-02    0.122E+00
DAV:  21    -0.134882303861E+04   -0.14637E-02   -0.18114E-03  3456   0.143E-02    0.683E-01
DAV:  22    -0.134883146546E+04   -0.84268E-02   -0.21643E-04  2928   0.236E-02    0.786E-01
DAV:  23    -0.134883162418E+04   -0.15872E-03   -0.54265E-05  3408   0.104E-02    0.820E-01
DAV:  24    -0.134883104039E+04    0.58380E-03   -0.21064E-04  2512   0.796E-03    0.625E-01
DAV:  25    -0.134883279407E+04   -0.17537E-02   -0.48264E-04  3616   0.150E-02    0.343E-01
DAV:  26    -0.134883495086E+04   -0.21568E-02   -0.20346E-04  3984   0.214E-02    0.219E-01
DAV:  27    -0.134883556295E+04   -0.61209E-03   -0.45378E-05  3056   0.102E-02    0.190E-01
DAV:  28    -0.134883567689E+04   -0.11394E-03   -0.13233E-05  1616   0.295E-03    0.146E-01
DAV:  29    -0.134883575008E+04   -0.73186E-04   -0.94464E-05  1928   0.514E-03    0.305E-02
DAV:  30    -0.134883585605E+04   -0.10598E-03   -0.30347E-05  2112   0.639E-03    0.491E-02
DAV:  31    -0.134883582301E+04    0.33044E-04   -0.43853E-06  1512   0.360E-03    0.332E-02
DAV:  32    -0.134883582082E+04    0.21852E-05   -0.10786E-06  1512   0.137E-03
  38 F= -.14293984E+04 E0= -.14292741E+04  d E =-.524967E+00
       N       E                     dE             d eps       ncg     rms          rms(c)
DAV:   1    -0.135079566559E+04   -0.19598E+01   -0.19868E+02  2957   0.205E+01    0.105E+01
DAV:   2    -0.136346038117E+04   -0.12665E+02   -0.97080E+00  4072   0.947E+00    0.208E+01
DAV:   3    -0.135388372632E+04    0.95767E+01   -0.36394E+00  3832   0.902E+00    0.240E+01
DAV:   4    -0.135028564643E+04    0.35981E+01   -0.54985E+00  3608   0.461E+00    0.166E+01
DAV:   5    -0.135124001643E+04   -0.95437E+00   -0.29818E+00  4128   0.354E+00    0.967E+00
DAV:   6    -0.135216967790E+04   -0.92966E+00   -0.20496E+00  3744   0.269E+00    0.241E+01
DAV:   7    -0.135061262540E+04    0.15571E+01   -0.11127E+00  3824   0.151E+00    0.916E+00
DAV:   8    -0.135016426218E+04    0.44836E+00   -0.38212E-01  3704   0.102E+00    0.828E+00
DAV:   9    -0.135244567151E+04   -0.22814E+01   -0.32986E+00  4935   0.229E+00    0.161E+01
DAV:  10    -0.134984456203E+04    0.26011E+01   -0.26358E-01  3864   0.200E+00    0.491E+00
DAV:  11    -0.135016000465E+04   -0.31544E+00   -0.42996E-01  3640   0.537E-01    0.323E+00
DAV:  12    -0.135019987911E+04   -0.39874E-01   -0.92857E-02  3840   0.220E-01    0.561E+00
DAV:  13    -0.135007896762E+04    0.12091E+00   -0.34568E-01  3912   0.221E-01    0.290E+00
DAV:  14    -0.135016989944E+04   -0.90932E-01   -0.15484E-01  3176   0.194E-01    0.379E+00
DAV:  15    -0.135013118092E+04    0.38719E-01   -0.14586E-01  3816   0.203E-01    0.279E+00
DAV:  16    -0.135013439946E+04   -0.32185E-02   -0.26309E-02  3256   0.134E-01    0.178E+00
DAV:  17    -0.135014963870E+04   -0.15239E-01   -0.27381E-03  3816   0.643E-02    0.178E+00
DAV:  18    -0.135015183700E+04   -0.21983E-02   -0.38252E-04  4160   0.389E-02    0.163E+00
DAV:  19    -0.135015608904E+04   -0.42520E-02   -0.10266E-02  4328   0.785E-02    0.221E+00
DAV:  20    -0.135013819142E+04    0.17898E-01   -0.15561E-02  3352   0.767E-02    0.119E+00
DAV:  21    -0.135015006672E+04   -0.11875E-01   -0.14877E-03  3264   0.510E-02    0.111E+00
DAV:  22    -0.135014819977E+04    0.18669E-02   -0.15277E-04  3568   0.187E-02    0.110E+00
DAV:  23    -0.135014696837E+04    0.12314E-02   -0.54399E-04  2984   0.140E-02    0.973E-01
DAV:  24    -0.135014881707E+04   -0.18487E-02   -0.15445E-04  3064   0.180E-02    0.816E-01
DAV:  25    -0.135014926466E+04   -0.44759E-03   -0.72009E-04  2560   0.121E-02    0.775E-01
DAV:  26    -0.135014986179E+04   -0.59713E-03   -0.13623E-04  2944   0.195E-02    0.634E-01
DAV:  27    -0.135014954931E+04    0.31247E-03   -0.18660E-04  3664   0.195E-02    0.432E-01
DAV:  28    -0.135014949578E+04    0.53539E-04   -0.12189E-04  3776   0.148E-02    0.298E-01
DAV:  29    -0.135014944571E+04    0.50061E-04   -0.59587E-05  2768   0.120E-02    0.143E-01
DAV:  30    -0.135014943728E+04    0.84332E-05   -0.56234E-05  3104   0.774E-03    0.841E-02
DAV:  31    -0.135014942333E+04    0.13952E-04   -0.16289E-05  1784   0.395E-03    0.694E-02
DAV:  32    -0.135014943567E+04   -0.12343E-04   -0.42220E-06  1568   0.227E-03    0.558E-02
DAV:  33    -0.135014942855E+04    0.71203E-05   -0.14311E-06  1528   0.131E-03    0.487E-02
DAV:  34    -0.135014942647E+04    0.20857E-05   -0.40820E-06  1616   0.237E-03
  39 F= -.14306882E+04 E0= -.14305734E+04  d E =-.181481E+01
       N       E                     dE             d eps       ncg     rms          rms(c)
DAV:   1    -0.135685273446E+04   -0.67033E+01   -0.79511E+02  2932   0.414E+01    0.642E+01
DAV:   2    -0.181659369167E+04   -0.45974E+03   -0.14460E+03  4406   0.530E+01    0.132E+02
DAV:   3    -0.161712136820E+04    0.19947E+03   -0.94588E+02  4919   0.634E+01    0.622E+01
DAV:   4    -0.136574235350E+04    0.25138E+03   -0.66537E+02  4110   0.389E+01    0.429E+01
DAV:   5    -0.135554209762E+04    0.10200E+02   -0.23024E+02  3976   0.194E+01    0.307E+01
DAV:   6    -0.135275592947E+04    0.27862E+01   -0.46945E+01  4039   0.960E+00    0.310E+01
DAV:   7    -0.135193767564E+04    0.81825E+00   -0.75773E+00  3872   0.325E+00    0.299E+01
DAV:   8    -0.135090810323E+04    0.10296E+01   -0.75396E-01  4392   0.152E+00    0.268E+01
DAV:   9    -0.135055236580E+04    0.35574E+00   -0.25167E+00  3888   0.181E+00    0.189E+01
DAV:  10    -0.135131109783E+04   -0.75873E+00   -0.32438E+00  3848   0.118E+00    0.213E+01
DAV:  11    -0.135294986923E+04   -0.16388E+01   -0.37808E+01  4568   0.437E+00    0.398E+01
DAV:  12    -0.135074215697E+04    0.22077E+01   -0.59666E+00  3560   0.245E+00    0.131E+01
DAV:  13    -0.135062070422E+04    0.12145E+00   -0.66312E-01  3968   0.118E+00    0.125E+01
DAV:  14    -0.135050790266E+04    0.11280E+00   -0.19236E-01  3832   0.678E-01    0.961E+00
DAV:  15    -0.135056000155E+04   -0.52099E-01   -0.83575E-02  3936   0.482E-01    0.791E+00
DAV:  16    -0.135050333038E+04    0.56671E-01   -0.54929E-02  4344   0.508E-01    0.696E+00
DAV:  17    -0.135027472503E+04    0.22861E+00   -0.29720E-01  4520   0.106E+00    0.500E+00
DAV:  18    -0.135026853262E+04    0.61924E-02   -0.10835E-01  3248   0.348E-01    0.481E+00
DAV:  19    -0.135027129834E+04   -0.27657E-02   -0.61519E-03  4008   0.103E-01    0.496E+00
DAV:  20    -0.135025611522E+04    0.15183E-01   -0.26131E-03  3632   0.920E-02    0.446E+00
DAV:  21    -0.135024858223E+04    0.75330E-02   -0.67693E-02  3432   0.382E-01    0.296E+00
DAV:  22    -0.135027293925E+04   -0.24357E-01   -0.17098E-02  3824   0.221E-01    0.296E+00
DAV:  23    -0.135025800237E+04    0.14937E-01   -0.74291E-03  3976   0.123E-01    0.273E+00
DAV:  24    -0.135025019045E+04    0.78119E-02   -0.99974E-03  4272   0.145E-01    0.185E+00
DAV:  25    -0.135027247403E+04   -0.22284E-01   -0.12477E-02  3888   0.174E-01    0.160E+00
DAV:  26    -0.135026966028E+04    0.28137E-02   -0.10072E-02  4104   0.140E-01    0.848E-01
DAV:  27    -0.135026962218E+04    0.38093E-04   -0.41934E-03  3488   0.781E-02    0.731E-01
DAV:  28    -0.135026938603E+04    0.23616E-03   -0.20568E-03  3960   0.832E-02    0.690E-01
DAV:  29    -0.135026986375E+04   -0.47772E-03   -0.14378E-03  3672   0.531E-02    0.594E-01
DAV:  30    -0.135027218357E+04   -0.23198E-02   -0.26002E-03  4319   0.683E-02    0.158E+00
DAV:  31    -0.135025969332E+04    0.12490E-01   -0.41013E-03  3320   0.715E-02    0.481E-01
DAV:  32    -0.135026959444E+04   -0.99011E-02   -0.77707E-04  3175   0.411E-02    0.418E-01
DAV:  33    -0.135027014376E+04   -0.54932E-03   -0.24446E-04  3904   0.226E-02    0.354E-01
DAV:  34    -0.135026979103E+04    0.35273E-03   -0.58146E-04  4128   0.377E-02    0.290E-01
DAV:  35    -0.135026976868E+04    0.22353E-04   -0.21568E-04  3032   0.170E-02    0.105E-01
DAV:  36    -0.135026985442E+04   -0.85740E-04   -0.16143E-05  2224   0.694E-03    0.820E-02
DAV:  37    -0.135026988298E+04   -0.28568E-04   -0.19776E-05  2616   0.602E-03    0.949E-02
DAV:  38    -0.135026988476E+04   -0.17811E-05   -0.40755E-06  1592   0.336E-03
  40 F= -.14307636E+04 E0= -.14306915E+04  d E =-.189015E+01
