NiAl                                    
            1
    17.180573    0.000000    0.000000
     8.590287   14.878812    0.000000
     0.000000    0.000000   36.400000
   Al   O 
   252    64
Direct configuration=     1
   0.44444442  0.44444445  0.06423022
   0.44444442  0.77777779  0.06423022
   0.44444439  0.11111116  0.06423022
   0.77777773  0.44444445  0.06423022
   0.77777779  0.77777779  0.06423022
   0.77777773  0.11111116  0.06423022
   0.11111105  0.44444445  0.06423022
   0.11111116  0.77777779  0.06423022
   0.11111105  0.11111116  0.06423022
   0.55555552  0.55555558  0.12846045
   0.55555552  0.88888890  0.12846045
   0.55555552  0.22222233  0.12846045
   0.88888890  0.55555558  0.12846045
   0.88888884  0.88888890  0.12846045
   0.88888890  0.22222233  0.12846045
   0.22222221  0.55555558  0.12846045
   0.22222221  0.88888890  0.12846045
   0.22222221  0.22222233  0.12846045
   0.66666663  0.66666663  0.19269066
   0.66666669  0.00000000  0.19269066
   0.66666663  0.33333325  0.19269066
   0.00000000  0.66666663  0.19269066
   0.00000000  0.00000000  0.19269066
   0.00000000  0.33333325  0.19269066
   0.33333337  0.66666663  0.19269066
   0.33333337  0.00000000  0.19269066
   0.33333325  0.33333325  0.19269066
   0.77777779  0.77777779  0.25692089
   0.77777773  0.11111116  0.25692089
   0.77777779  0.44444442  0.25692089
   0.11111116  0.77777779  0.25692089
   0.11111105  0.11111116  0.25692089
   0.11111116  0.44444442  0.25692089
   0.44444442  0.77777779  0.25692089
   0.44444430  0.11111116  0.25692089
   0.44444442  0.44444442  0.25692089
   0.88888884  0.88888890  0.32115108
   0.88888890  0.22222233  0.32115108
   0.88888884  0.55555558  0.32115108
   0.22222221  0.88888890  0.32115108
   0.22222221  0.22222233  0.32115108
   0.22222209  0.55555558  0.32115108
   0.55555546  0.88888890  0.32115108
   0.55555546  0.22222233  0.32115108
   0.55555558  0.55555558  0.32115108
   0.00000000  0.00000000  0.38538131
   0.00000000  0.33333325  0.38538131
   0.00000000  0.66666663  0.38538131
   0.33333337  0.00000000  0.38538131
   0.33333325  0.33333325  0.38538131
   0.33333325  0.66666663  0.38538131
   0.66666663  0.00000000  0.38538131
   0.66666675  0.33333325  0.38538131
   0.66666675  0.66666663  0.38538131
   0.11111105  0.11111116  0.44961152
   0.11111116  0.44444442  0.44961152
   0.11111105  0.77777779  0.44961152
   0.44444430  0.11111116  0.44961152
   0.44444442  0.44444442  0.44961152
   0.44444442  0.77777779  0.44961152
   0.77777779  0.11111116  0.44961152
   0.77777791  0.44444442  0.44961152
   0.77777767  0.77777779  0.44961152
   0.27777776  0.27777779  0.06423022
   0.27777776  0.61111116  0.06423022
   0.27777779  0.94444448  0.06423022
   0.61111110  0.27777779  0.06423022
   0.61111110  0.61111116  0.06423022
   0.61111110  0.94444448  0.06423022
   0.94444442  0.27777779  0.06423022
   0.94444448  0.61111116  0.06423022
   0.94444442  0.94444448  0.06423022
   0.38888890  0.38888890  0.12846045
   0.38888890  0.72222221  0.12846045
   0.38888893  0.05555558  0.12846045
   0.72222221  0.38888890  0.12846045
   0.72222221  0.72222221  0.12846045
   0.72222227  0.05555558  0.12846045
   0.05555558  0.38888890  0.12846045
   0.05555558  0.72222221  0.12846045
   0.05555546  0.05555558  0.12846045
   0.50000000  0.50000000  0.19269066
   0.50000006  0.83333331  0.19269066
   0.49999997  0.16666675  0.19269066
   0.83333331  0.50000000  0.19269066
   0.83333337  0.83333331  0.19269066
   0.83333331  0.16666675  0.19269066
   0.16666663  0.50000000  0.19269066
   0.16666663  0.83333331  0.19269066
   0.16666663  0.16666675  0.19269066
   0.61111110  0.61111116  0.25692089
   0.61111110  0.94444448  0.25692089
   0.61111116  0.27777779  0.25692089
   0.94444448  0.61111116  0.25692089
   0.94444442  0.94444448  0.25692089
   0.94444442  0.27777779  0.25692089
   0.27777767  0.61111116  0.25692089
   0.27777779  0.94444448  0.25692089
   0.27777779  0.27777779  0.25692089
   0.72222221  0.72222221  0.32115108
   0.72222227  0.05555558  0.32115108
   0.72222221  0.38888884  0.32115108
   0.05555558  0.72222221  0.32115108
   0.05555546  0.05555558  0.32115108
   0.05555558  0.38888884  0.32115108
   0.38888895  0.72222221  0.32115108
   0.38888884  0.05555558  0.32115108
   0.38888895  0.38888884  0.32115108
   0.83333337  0.83333331  0.38538131
   0.83333331  0.16666675  0.38538131
   0.83333325  0.50000000  0.38538131
   0.16666663  0.83333331  0.38538131
   0.16666663  0.16666675  0.38538131
   0.16666663  0.50000000  0.38538131
   0.50000000  0.83333331  0.38538131
   0.50000000  0.16666675  0.38538131
   0.50000012  0.50000000  0.38538131
   0.94444442  0.94444448  0.44961152
   0.94444442  0.27777779  0.44961152
   0.94444448  0.61111105  0.44961152
   0.27777779  0.94444448  0.44961152
   0.27777779  0.27777779  0.44961152
   0.27777779  0.61111105  0.44961152
   0.61111116  0.94444448  0.44961152
   0.61111128  0.27777779  0.44961152
   0.61111105  0.61111105  0.44961152
   0.27777776  0.44444445  0.06423022
   0.27777773  0.77777779  0.06423022
   0.27777776  0.11111116  0.06423022
   0.61111110  0.44444445  0.06423022
   0.61111105  0.77777779  0.06423022
   0.61111110  0.11111116  0.06423022
   0.94444448  0.44444445  0.06423022
   0.94444442  0.77777779  0.06423022
   0.94444448  0.11111116  0.06423022
   0.38888887  0.55555558  0.12846045
   0.38888887  0.88888890  0.12846045
   0.38888881  0.22222233  0.12846045
   0.72222215  0.55555558  0.12846045
   0.72222221  0.88888890  0.12846045
   0.72222215  0.22222233  0.12846045
   0.05555546  0.55555558  0.12846045
   0.05555558  0.88888890  0.12846045
   0.05555546  0.22222233  0.12846045
   0.50000000  0.66666663  0.19269066
   0.49999994  0.00000000  0.19269066
   0.50000000  0.33333325  0.19269066
   0.83333337  0.66666663  0.19269066
   0.83333331  0.00000000  0.19269066
   0.83333337  0.33333325  0.19269066
   0.16666675  0.66666663  0.19269066
   0.16666663  0.00000000  0.19269066
   0.16666675  0.33333325  0.19269066
   0.61111105  0.77777779  0.25692089
   0.61111110  0.11111116  0.25692089
   0.61111105  0.44444442  0.25692089
   0.94444442  0.77777779  0.25692089
   0.94444448  0.11111116  0.25692089
   0.94444442  0.44444442  0.25692089
   0.27777779  0.77777779  0.25692089
   0.27777779  0.11111116  0.25692089
   0.27777767  0.44444442  0.25692089
   0.72222221  0.88888890  0.32115108
   0.72222215  0.22222233  0.32115108
   0.72222221  0.55555558  0.32115108
   0.05555558  0.88888890  0.32115108
   0.05555546  0.22222233  0.32115108
   0.05555558  0.55555558  0.32115108
   0.38888895  0.88888890  0.32115108
   0.38888872  0.22222233  0.32115108
   0.38888884  0.55555558  0.32115108
   0.83333331  0.00000000  0.38538131
   0.83333337  0.33333325  0.38538131
   0.83333331  0.66666663  0.38538131
   0.16666663  0.00000000  0.38538131
   0.16666675  0.33333325  0.38538131
   0.16666663  0.66666663  0.38538131
   0.49999988  0.00000000  0.38538131
   0.50000000  0.33333325  0.38538131
   0.50000000  0.66666663  0.38538131
   0.94444448  0.11111116  0.44961152
   0.94444442  0.44444442  0.44961152
   0.94444448  0.77777779  0.44961152
   0.27777779  0.11111116  0.44961152
   0.27777767  0.44444442  0.44961152
   0.27777767  0.77777779  0.44961152
   0.61111105  0.11111116  0.44961152
   0.61111116  0.44444442  0.44961152
   0.61111116  0.77777779  0.44961152
   0.44444445  0.27777779  0.06423022
   0.44444445  0.61111116  0.06423022
   0.44444445  0.94444448  0.06423022
   0.77777779  0.27777779  0.06423022
   0.77777773  0.61111116  0.06423022
   0.77777779  0.94444448  0.06423022
   0.11111116  0.27777779  0.06423022
   0.11111105  0.61111116  0.06423022
   0.11111105  0.94444448  0.06423022
   0.55555558  0.38888890  0.12846045
   0.55555558  0.72222221  0.12846045
   0.55555552  0.05555558  0.12846045
   0.88888884  0.38888890  0.12846045
   0.88888895  0.72222221  0.12846045
   0.88888890  0.05555558  0.12846045
   0.22222221  0.38888890  0.12846045
   0.22222221  0.72222221  0.12846045
   0.22222221  0.05555558  0.12846045
   0.66666669  0.50000000  0.19269066
   0.66666663  0.83333331  0.19269066
   0.66666669  0.16666675  0.19269066
   0.00000000  0.50000000  0.19269066
   0.00000000  0.83333331  0.19269066
   0.00000000  0.16666675  0.19269066
   0.33333325  0.50000000  0.19269066
   0.33333337  0.83333331  0.19269066
   0.33333325  0.16666675  0.19269066
   0.77777773  0.61111116  0.25692089
   0.77777779  0.94444448  0.25692089
   0.77777779  0.27777779  0.25692089
   0.11111105  0.61111116  0.25692089
   0.11111105  0.94444448  0.25692089
   0.11111116  0.27777779  0.25692089
   0.44444442  0.61111116  0.25692089
   0.44444442  0.94444448  0.25692089
   0.44444454  0.27777779  0.25692089
   0.88888895  0.72222221  0.32115108
   0.88888890  0.05555558  0.32115108
   0.88888884  0.38888884  0.32115108
   0.22222221  0.72222221  0.32115108
   0.22222221  0.05555558  0.32115108
   0.22222221  0.38888884  0.32115108
   0.55555546  0.72222221  0.32115108
   0.55555558  0.05555558  0.32115108
   0.55555570  0.38888884  0.32115108
   0.00000000  0.83333331  0.38538131
   0.00000000  0.16666675  0.38538131
   0.00000000  0.50000000  0.38538131
   0.33333337  0.83333331  0.38538131
   0.33333325  0.16666675  0.38538131
   0.33333337  0.50000000  0.38538131
   0.66666675  0.83333331  0.38538131
   0.66666675  0.16666675  0.38538131
   0.66666663  0.50000000  0.38538131
   0.11111105  0.94444448  0.44961152
   0.11111116  0.27777779  0.44961152
   0.11111116  0.61111105  0.44961152
   0.44444442  0.94444448  0.44961152
   0.44444454  0.27777779  0.44961152
   0.44444454  0.61111105  0.44961152
   0.77777791  0.94444448  0.44961152
   0.77777779  0.27777779  0.44961152
   0.77777779  0.61111105  0.44961152
   0.00000000  0.00000000  0.48807306
   0.00000000  0.12500000  0.48807306
   0.00000000  0.25000000  0.48807306
   0.00000000  0.37500000  0.48807306
   0.00000000  0.50000000  0.48807306
   0.00000000  0.62500000  0.48807306
   0.00000000  0.75000000  0.48807306
   0.00000000  0.87500000  0.48807306
   0.12500000  0.00000000  0.48807306
   0.12500000  0.12500000  0.48807306
   0.12500000  0.25000000  0.48807306
   0.12500000  0.37500000  0.48807306
   0.12500000  0.50000000  0.48807306
   0.12500000  0.62500000  0.48807306
   0.12500000  0.75000000  0.48807306
   0.12500000  0.87500000  0.48807306
   0.25000000  0.00000000  0.48807306
   0.25000000  0.12500000  0.48807306
   0.25000000  0.25000000  0.48807306
   0.25000000  0.37500000  0.48807306
   0.25000000  0.50000000  0.48807306
   0.25000000  0.62500000  0.48807306
   0.25000000  0.75000000  0.48807306
   0.25000000  0.87500000  0.48807306
   0.37500000  0.00000000  0.48807306
   0.37500000  0.12500000  0.48807306
   0.37500000  0.25000000  0.48807306
   0.37500000  0.37500000  0.48807306
   0.37500000  0.50000000  0.48807306
   0.37500000  0.62500000  0.48807306
   0.37500000  0.75000000  0.48807306
   0.37500000  0.87500000  0.48807306
   0.50000000  0.00000000  0.48807306
   0.50000000  0.12500000  0.48807306
   0.50000000  0.25000000  0.48807306
   0.50000000  0.37500000  0.48807306
   0.50000000  0.50000000  0.48807306
   0.50000000  0.62500000  0.48807306
   0.50000000  0.75000000  0.48807306
   0.50000000  0.87500000  0.48807306
   0.62500000  0.00000000  0.48807306
   0.62500000  0.12500000  0.48807306
   0.62500000  0.25000000  0.48807306
   0.62500000  0.37500000  0.48807306
   0.62500000  0.50000000  0.48807306
   0.62500000  0.62500000  0.48807306
   0.62500000  0.75000000  0.48807306
   0.62500000  0.87500000  0.48807306
   0.75000000  0.00000000  0.48807306
   0.75000000  0.12500000  0.48807306
   0.75000000  0.25000000  0.48807306
   0.75000000  0.37500000  0.48807306
   0.75000000  0.50000000  0.48807306
   0.75000000  0.62500000  0.48807306
   0.75000000  0.75000000  0.48807306
   0.75000000  0.87500000  0.48807306
   0.87500000  0.00000000  0.48807306
   0.87500000  0.12500000  0.48807306
   0.87500000  0.25000000  0.48807306
   0.87500000  0.37500000  0.48807306
   0.87500000  0.50000000  0.48807306
   0.87500000  0.62500000  0.48807306
   0.87500000  0.75000000  0.48807306
   0.87500000  0.87500000  0.48807306
Direct configuration=     2
   0.44443699  0.44443702  0.06426739
   0.44445910  0.77777045  0.06426099
   0.44443696  0.11112602  0.06426739
   0.77777039  0.44445913  0.06426099
   0.77777045  0.77777045  0.06426099
   0.77777753  0.11111127  0.06425685
   0.11112590  0.44443702  0.06426739
   0.11111127  0.77777759  0.06425685
   0.11111115  0.11111127  0.06425685
   0.55555776  0.55555782  0.12852645
   0.55555776  0.88888443  0.12852645
   0.55555896  0.22222061  0.12852237
   0.88888443  0.55555782  0.12852645
   0.88889136  0.88889142  0.12852894
   0.88889142  0.22221729  0.12852894
   0.22222049  0.55555902  0.12852237
   0.22221717  0.88889142  0.12852894
   0.22222049  0.22222061  0.12852237
   0.66666663  0.66666663  0.19269641
   0.66666848  0.00000291  0.19269033
   0.66666842  0.33332856  0.19269033
   0.00000291  0.66666842  0.19269033
   0.00000000  0.00000000  0.19269190
   0.00000291  0.33332856  0.19269033
   0.33332868  0.66666842  0.19269033
   0.33332868  0.00000291  0.19269033
   0.33333325  0.33333325  0.19269718
   0.77778160  0.77778160  0.25691760
   0.77777117  0.11111444  0.25692053
   0.77778160  0.44443680  0.25691760
   0.11111444  0.77777123  0.25692053
   0.11111433  0.11111444  0.25692053
   0.11111016  0.44444492  0.25691762
   0.44443680  0.77778160  0.25691760
   0.44444480  0.11111016  0.25691762
   0.44444492  0.44444492  0.25691762
   0.88888820  0.88888826  0.32115446
   0.88888826  0.22222360  0.32115446
   0.88888214  0.55555893  0.32114966
   0.22222348  0.88888826  0.32115446
   0.22221251  0.22221263  0.32115283
   0.22221239  0.55557498  0.32115283
   0.55555881  0.88888220  0.32114966
   0.55557487  0.22221263  0.32115283
   0.55555893  0.55555893  0.32114966
   0.00000000  0.00000000  0.38541350
   0.00000551  0.33334542  0.38542350
   0.00000551  0.66664896  0.38542350
   0.33334553  0.00000551  0.38542350
   0.33333325  0.33333325  0.38540852
   0.33334542  0.66664896  0.38542350
   0.66664896  0.00000551  0.38542350
   0.66664908  0.33334542  0.38542350
   0.66666675  0.66666663  0.38543793
   0.10790676  0.10790688  0.44328105
   0.11046161  0.44476919  0.44976980
   0.10790676  0.78418637  0.44328105
   0.44476908  0.11046161  0.44976980
   0.44476919  0.44476919  0.44976980
   0.44028219  0.77985891  0.44865888
   0.78418637  0.10790688  0.44328105
   0.77985903  0.44028219  0.44865888
   0.77985879  0.77985891  0.44865888
   0.27777042  0.27777045  0.06426099
   0.27777756  0.61111127  0.06425685
   0.27777045  0.94445916  0.06426099
   0.61111121  0.27777759  0.06425685
   0.61111121  0.61111127  0.06425685
   0.61112596  0.94443705  0.06426739
   0.94445910  0.27777045  0.06426099
   0.94443705  0.61112602  0.06426739
   0.94443699  0.94443705  0.06426739
   0.38889142  0.38889142  0.12852894
   0.38889142  0.72221717  0.12852894
   0.38888445  0.05555782  0.12852645
   0.72221717  0.38889142  0.12852894
   0.72222049  0.72222049  0.12852237
   0.72222055  0.05555902  0.12852237
   0.05555782  0.38888443  0.12852645
   0.05555902  0.72222049  0.12852237
   0.05555770  0.05555782  0.12852645
   0.50000000  0.50000000  0.19269190
   0.50000297  0.83332862  0.19269033
   0.50000288  0.16666854  0.19269033
   0.83332862  0.50000291  0.19269033
   0.83333337  0.83333331  0.19269718
   0.83332862  0.16666854  0.19269033
   0.16666842  0.50000291  0.19269033
   0.16666842  0.83332862  0.19269033
   0.16666663  0.16666675  0.19269641
   0.61111438  0.61111444  0.25692053
   0.61111010  0.94444498  0.25691762
   0.61111444  0.27777123  0.25692053
   0.94444498  0.61111016  0.25691762
   0.94444492  0.94444498  0.25691762
   0.94443680  0.27778160  0.25691760
   0.27777111  0.61111444  0.25692053
   0.27778160  0.94443686  0.25691760
   0.27778160  0.27778160  0.25691760
   0.72221251  0.72221251  0.32115283
   0.72221257  0.05557498  0.32115283
   0.72222348  0.38888820  0.32115446
   0.05557498  0.72221251  0.32115283
   0.05555881  0.05555893  0.32114966
   0.05555893  0.38888214  0.32114966
   0.38888832  0.72222348  0.32115446
   0.38888214  0.05555893  0.32114966
   0.38888832  0.38888820  0.32115446
   0.83333337  0.83333331  0.38540852
   0.83334547  0.16664908  0.38542350
   0.83334542  0.50000551  0.38542350
   0.16664896  0.83334547  0.38542350
   0.16666663  0.16666675  0.38543793
   0.16664896  0.50000551  0.38542350
   0.50000551  0.83334547  0.38542350
   0.50000551  0.16664908  0.38542350
   0.50000012  0.50000000  0.38541350
   0.94476919  0.94476925  0.44976980
   0.94028219  0.27985891  0.44865888
   0.94476925  0.61046149  0.44976980
   0.27985891  0.94028225  0.44865888
   0.27985891  0.27985891  0.44865888
   0.28418637  0.60790676  0.44328105
   0.61046161  0.94476925  0.44976980
   0.60790699  0.28418637  0.44328105
   0.60790676  0.60790676  0.44328105
   0.27777042  0.44445913  0.06426099
   0.27777039  0.77777045  0.06426099
   0.27777756  0.11111127  0.06425685
   0.61112596  0.44443702  0.06426739
   0.61111115  0.77777759  0.06425685
   0.61111121  0.11111127  0.06425685
   0.94443705  0.44443702  0.06426739
   0.94445910  0.77777045  0.06426099
   0.94443705  0.11112602  0.06426739
   0.38888440  0.55555782  0.12852645
   0.38889139  0.88889142  0.12852894
   0.38889133  0.22221729  0.12852894
   0.72222043  0.55555902  0.12852237
   0.72221717  0.88889142  0.12852894
   0.72222043  0.22222061  0.12852237
   0.05555770  0.55555782  0.12852645
   0.05555782  0.88888443  0.12852645
   0.05555890  0.22222061  0.12852237
   0.50000291  0.66666842  0.19269033
   0.49999994  0.00000000  0.19269190
   0.50000291  0.33332856  0.19269033
   0.83332868  0.66666842  0.19269033
   0.83332862  0.00000291  0.19269033
   0.83333337  0.33333325  0.19269718
   0.16666675  0.66666663  0.19269641
   0.16666842  0.00000291  0.19269033
   0.16666854  0.33332856  0.19269033
   0.61111433  0.77777123  0.25692053
   0.61111438  0.11111444  0.25692053
   0.61111004  0.44444492  0.25691762
   0.94443680  0.77778160  0.25691760
   0.94444498  0.11111016  0.25691762
   0.94444492  0.44444492  0.25691762
   0.27778160  0.77778160  0.25691760
   0.27777123  0.11111444  0.25692053
   0.27778148  0.44443680  0.25691760
   0.72222348  0.88888826  0.32115446
   0.72221245  0.22221263  0.32115283
   0.72221251  0.55557498  0.32115283
   0.05555893  0.88888220  0.32114966
   0.05557487  0.22221263  0.32115283
   0.05555893  0.55555893  0.32114966
   0.38888832  0.88888826  0.32115446
   0.38888808  0.22222360  0.32115446
   0.38888214  0.55555893  0.32114966
   0.83334547  0.00000551  0.38542350
   0.83333337  0.33333325  0.38540852
   0.83334547  0.66664896  0.38542350
   0.16664896  0.00000551  0.38542350
   0.16664908  0.33334542  0.38542350
   0.16666663  0.66666663  0.38543793
   0.49999988  0.00000000  0.38541350
   0.50000551  0.33334542  0.38542350
   0.50000551  0.66664896  0.38542350
   0.94476925  0.11046161  0.44976980
   0.94476919  0.44476919  0.44976980
   0.94028225  0.77985891  0.44865888
   0.28418637  0.10790688  0.44328105
   0.27985879  0.44028219  0.44865888
   0.27985879  0.77985891  0.44865888
   0.60790676  0.10790688  0.44328105
   0.61046161  0.44476919  0.44976980
   0.60790688  0.78418637  0.44328105
   0.44445913  0.27777045  0.06426099
   0.44443702  0.61112602  0.06426739
   0.44443702  0.94443705  0.06426739
   0.77777045  0.27777045  0.06426099
   0.77777753  0.61111127  0.06425685
   0.77777045  0.94445916  0.06426099
   0.11111127  0.27777759  0.06425685
   0.11111115  0.61111127  0.06425685
   0.11112590  0.94443705  0.06426739
   0.55555782  0.38888443  0.12852645
   0.55555902  0.72222049  0.12852237
   0.55555776  0.05555782  0.12852645
   0.88889136  0.38889142  0.12852894
   0.88889148  0.72221717  0.12852894
   0.88888443  0.05555782  0.12852645
   0.22221717  0.38889142  0.12852894
   0.22222049  0.72222049  0.12852237
   0.22222049  0.05555902  0.12852237
   0.66666848  0.50000291  0.19269033
   0.66666842  0.83332862  0.19269033
   0.66666669  0.16666675  0.19269641
   0.00000000  0.50000000  0.19269190
   0.00000291  0.83332862  0.19269033
   0.00000291  0.16666854  0.19269033
   0.33332856  0.50000291  0.19269033
   0.33333337  0.83333331  0.19269718
   0.33332856  0.16666854  0.19269033
   0.77777117  0.61111444  0.25692053
   0.77778160  0.94443686  0.25691760
   0.77778160  0.27778160  0.25691760
   0.11111433  0.61111444  0.25692053
   0.11111004  0.94444498  0.25691762
   0.11111444  0.27777123  0.25692053
   0.44444492  0.61111016  0.25691762
   0.44444492  0.94444498  0.25691762
   0.44443692  0.27778160  0.25691760
   0.88888832  0.72222348  0.32115446
   0.88888220  0.05555893  0.32114966
   0.88888820  0.38888820  0.32115446
   0.22221251  0.72221251  0.32115283
   0.22221251  0.05557498  0.32115283
   0.22222348  0.38888820  0.32115446
   0.55557487  0.72221251  0.32115283
   0.55555893  0.05555893  0.32114966
   0.55555905  0.38888214  0.32114966
   0.00000551  0.83334547  0.38542350
   0.00000551  0.16664908  0.38542350
   0.00000000  0.50000000  0.38541350
   0.33333337  0.83333331  0.38540852
   0.33334542  0.16664908  0.38542350
   0.33334553  0.50000551  0.38542350
   0.66664908  0.83334547  0.38542350
   0.66666675  0.16666675  0.38543793
   0.66664896  0.50000551  0.38542350
   0.11046149  0.94476925  0.44976980
   0.10790688  0.28418637  0.44328105
   0.10790688  0.60790676  0.44328105
   0.44476919  0.94476925  0.44976980
   0.44028231  0.27985891  0.44865888
   0.44476931  0.61046149  0.44976980
   0.77985903  0.94028225  0.44865888
   0.77985891  0.27985891  0.44865888
   0.78418637  0.60790676  0.44328105
   0.00000000  0.00000000  0.48710441
   0.00135611  0.12512287  0.48785576
   0.00396135  0.24801932  0.48962885
   0.00135611  0.37352102  0.48785576
   0.00000000  0.50000000  0.48710441
   0.00135611  0.62512287  0.48785576
   0.00396135  0.74801932  0.48962885
   0.00135611  0.87352102  0.48785576
   0.12512287  0.00135611  0.48785576
   0.12799271  0.12799271  0.49501999
   0.12799271  0.24401459  0.49501999
   0.12512287  0.37352102  0.48785576
   0.12512287  0.50135611  0.48785576
   0.12799271  0.62799271  0.49501999
   0.12799271  0.74401459  0.49501999
   0.12512287  0.87352102  0.48785576
   0.24801932  0.00396135  0.48962885
   0.24401459  0.12799271  0.49501999
   0.24801932  0.24801932  0.48962885
   0.25004490  0.37497755  0.48703805
   0.24801932  0.50396135  0.48962885
   0.24401459  0.62799271  0.49501999
   0.24801932  0.74801932  0.48962885
   0.25004490  0.87497755  0.48703805
   0.37352102  0.00135611  0.48785576
   0.37352102  0.12512287  0.48785576
   0.37497755  0.25004490  0.48703805
   0.37497755  0.37497755  0.48703805
   0.37352102  0.50135611  0.48785576
   0.37352102  0.62512287  0.48785576
   0.37497755  0.75004490  0.48703805
   0.37497755  0.87497755  0.48703805
   0.50000000  0.00000000  0.48710441
   0.50135611  0.12512287  0.48785576
   0.50396135  0.24801932  0.48962885
   0.50135611  0.37352102  0.48785576
   0.50000000  0.50000000  0.48710441
   0.50135611  0.62512287  0.48785576
   0.50396135  0.74801932  0.48962885
   0.50135611  0.87352102  0.48785576
   0.62512287  0.00135611  0.48785576
   0.62799271  0.12799271  0.49501999
   0.62799271  0.24401459  0.49501999
   0.62512287  0.37352102  0.48785576
   0.62512287  0.50135611  0.48785576
   0.62799271  0.62799271  0.49501999
   0.62799271  0.74401459  0.49501999
   0.62512287  0.87352102  0.48785576
   0.74801932  0.00396135  0.48962885
   0.74401459  0.12799271  0.49501999
   0.74801932  0.24801932  0.48962885
   0.75004490  0.37497755  0.48703805
   0.74801932  0.50396135  0.48962885
   0.74401459  0.62799271  0.49501999
   0.74801932  0.74801932  0.48962885
   0.75004490  0.87497755  0.48703805
   0.87352102  0.00135611  0.48785576
   0.87352102  0.12512287  0.48785576
   0.87497755  0.25004490  0.48703805
   0.87497755  0.37497755  0.48703805
   0.87352102  0.50135611  0.48785576
   0.87352102  0.62512287  0.48785576
   0.87497755  0.75004490  0.48703805
   0.87497755  0.87497755  0.48703805
Direct configuration=     3
   0.44443977  0.44443980  0.06425349
   0.44445360  0.77777320  0.06424948
   0.44443974  0.11112046  0.06425349
   0.77777314  0.44445363  0.06424948
   0.77777320  0.77777320  0.06424948
   0.77777760  0.11111123  0.06424689
   0.11112034  0.44443980  0.06425349
   0.11111123  0.77777766  0.06424689
   0.11111111  0.11111123  0.06424689
   0.55555692  0.55555698  0.12850175
   0.55555692  0.88888610  0.12850175
   0.55555768  0.22222125  0.12849920
   0.88888610  0.55555698  0.12850175
   0.88889041  0.88889047  0.12850331
   0.88889047  0.22221917  0.12850331
   0.22222113  0.55555774  0.12849920
   0.22221905  0.88889047  0.12850331
   0.22222113  0.22222125  0.12849920
   0.66666663  0.66666663  0.19269426
   0.66666781  0.00000182  0.19269045
   0.66666775  0.33333031  0.19269045
   0.00000182  0.66666775  0.19269045
   0.00000000  0.00000000  0.19269144
   0.00000182  0.33333031  0.19269045
   0.33333043  0.66666775  0.19269045
   0.33333043  0.00000182  0.19269045
   0.33333325  0.33333325  0.19269474
   0.77778017  0.77778017  0.25691883
   0.77777363  0.11111322  0.25692067
   0.77778017  0.44443965  0.25691883
   0.11111322  0.77777369  0.25692067
   0.11111310  0.11111322  0.25692067
   0.11111053  0.44444473  0.25691884
   0.44443965  0.77778017  0.25691883
   0.44444461  0.11111053  0.25691884
   0.44444473  0.44444473  0.25691884
   0.88888844  0.88888850  0.32115319
   0.88888850  0.22222312  0.32115319
   0.88888464  0.55555768  0.32115019
   0.22222300  0.88888850  0.32115319
   0.22221614  0.22221626  0.32115218
   0.22221602  0.55556772  0.32115218
   0.55555756  0.88888470  0.32115019
   0.55556761  0.22221626  0.32115218
   0.55555768  0.55555768  0.32115019
   0.00000000  0.00000000  0.38540145
   0.00000345  0.33334086  0.38540771
   0.00000345  0.66665557  0.38540771
   0.33334098  0.00000345  0.38540771
   0.33333325  0.33333325  0.38539834
   0.33334086  0.66665557  0.38540771
   0.66665557  0.00000345  0.38540771
   0.66665569  0.33334086  0.38540771
   0.66666675  0.66666663  0.38541675
   0.10910577  0.10910589  0.44564984
   0.11070467  0.44464767  0.44971058
   0.10910577  0.78178835  0.44564984
   0.44464755  0.11070467  0.44971058
   0.44464767  0.44464767  0.44971058
   0.44183965  0.77908017  0.44901535
   0.78178835  0.10910589  0.44564984
   0.77908029  0.44183965  0.44901535
   0.77908006  0.77908017  0.44901535
   0.27777317  0.27777320  0.06424948
   0.27777763  0.61111123  0.06424689
   0.27777320  0.94445366  0.06424948
   0.61111117  0.27777766  0.06424689
   0.61111117  0.61111123  0.06424689
   0.61112040  0.94443983  0.06425349
   0.94445360  0.27777320  0.06424948
   0.94443983  0.61112046  0.06425349
   0.94443977  0.94443983  0.06425349
   0.38889047  0.38889047  0.12850331
   0.38889047  0.72221905  0.12850331
   0.38888613  0.05555698  0.12850175
   0.72221905  0.38889047  0.12850331
   0.72222113  0.72222113  0.12849920
   0.72222119  0.05555774  0.12849920
   0.05555698  0.38888610  0.12850175
   0.05555774  0.72222113  0.12849920
   0.05555686  0.05555698  0.12850175
   0.50000000  0.50000000  0.19269144
   0.50000188  0.83333037  0.19269045
   0.50000179  0.16666787  0.19269045
   0.83333037  0.50000182  0.19269045
   0.83333337  0.83333331  0.19269474
   0.83333037  0.16666787  0.19269045
   0.16666775  0.50000182  0.19269045
   0.16666775  0.83333037  0.19269045
   0.16666663  0.16666675  0.19269426
   0.61111316  0.61111322  0.25692067
   0.61111047  0.94444479  0.25691884
   0.61111322  0.27777369  0.25692067
   0.94444479  0.61111053  0.25691884
   0.94444473  0.94444479  0.25691884
   0.94443965  0.27778017  0.25691883
   0.27777357  0.61111322  0.25692067
   0.27778017  0.94443971  0.25691883
   0.27778017  0.27778017  0.25691883
   0.72221614  0.72221614  0.32115218
   0.72221620  0.05556772  0.32115218
   0.72222300  0.38888844  0.32115319
   0.05556772  0.72221614  0.32115218
   0.05555756  0.05555768  0.32115019
   0.05555768  0.38888464  0.32115019
   0.38888856  0.72222300  0.32115319
   0.38888464  0.05555768  0.32115019
   0.38888856  0.38888844  0.32115319
   0.83333337  0.83333331  0.38539834
   0.83334092  0.16665569  0.38540771
   0.83334086  0.50000345  0.38540771
   0.16665557  0.83334092  0.38540771
   0.16666663  0.16666675  0.38541675
   0.16665557  0.50000345  0.38540771
   0.50000345  0.83334092  0.38540771
   0.50000345  0.16665569  0.38540771
   0.50000012  0.50000000  0.38540145
   0.94464767  0.94464773  0.44971058
   0.94183965  0.27908017  0.44901535
   0.94464773  0.61070455  0.44971058
   0.27908017  0.94183971  0.44901535
   0.27908017  0.27908017  0.44901535
   0.28178835  0.60910577  0.44564984
   0.61070467  0.94464773  0.44971058
   0.60910601  0.28178835  0.44564984
   0.60910577  0.60910577  0.44564984
   0.27777317  0.44445363  0.06424948
   0.27777314  0.77777320  0.06424948
   0.27777763  0.11111123  0.06424689
   0.61112040  0.44443980  0.06425349
   0.61111111  0.77777766  0.06424689
   0.61111117  0.11111123  0.06424689
   0.94443983  0.44443980  0.06425349
   0.94445360  0.77777320  0.06424948
   0.94443983  0.11112046  0.06425349
   0.38888607  0.55555698  0.12850175
   0.38889044  0.88889047  0.12850331
   0.38889038  0.22221917  0.12850331
   0.72222107  0.55555774  0.12849920
   0.72221905  0.88889047  0.12850331
   0.72222107  0.22222125  0.12849920
   0.05555686  0.55555698  0.12850175
   0.05555698  0.88888610  0.12850175
   0.05555762  0.22222125  0.12849920
   0.50000182  0.66666775  0.19269045
   0.49999994  0.00000000  0.19269144
   0.50000182  0.33333031  0.19269045
   0.83333043  0.66666775  0.19269045
   0.83333037  0.00000182  0.19269045
   0.83333337  0.33333325  0.19269474