 254 254   0   0
  0.3019211E+02  0.1718057E-08  0.1718057E-08  0.3000000E-08  0.5000000E-15
   1.0000000000000000E-004
  CAR 
 NiAl                                    
      5.77117680    -30.21566353  301      1.80652922      1.00000000
    -30.216  0.0000E+00  0.0000E+00
    -30.096  0.0000E+00  0.0000E+00
    -29.976  0.0000E+00  0.0000E+00
    -29.856  0.0000E+00  0.0000E+00
    -29.736  0.0000E+00  0.0000E+00
    -29.616  0.0000E+00  0.0000E+00
    -29.496  0.0000E+00  0.0000E+00
    -29.376  0.0000E+00  0.0000E+00
    -29.256  0.0000E+00  0.0000E+00
    -29.136  0.0000E+00  0.0000E+00
    -29.016  0.0000E+00  0.0000E+00
    -28.896  0.0000E+00  0.0000E+00
    -28.776  0.2069E-06  0.2482E-07
    -28.656  0.2427E+00  0.2911E-01
    -28.536  0.1455E+02  0.1774E+01
    -28.416  0.1884E+01  0.2000E+01
    -28.296  0.3469E-04  0.2000E+01
    -28.176  0.0000E+00  0.2000E+01
    -28.056  0.0000E+00  0.2000E+01
    -27.936  0.0000E+00  0.2000E+01
    -27.817  0.0000E+00  0.2000E+01
    -27.697  0.0000E+00  0.2000E+01
    -27.577  0.0000E+00  0.2000E+01
    -27.457  0.0000E+00  0.2000E+01
    -27.337  0.0000E+00  0.2000E+01
    -27.217  0.0000E+00  0.2000E+01
    -27.097  0.0000E+00  0.2000E+01
    -26.977  0.0000E+00  0.2000E+01
    -26.857  0.0000E+00  0.2000E+01
    -26.737  0.0000E+00  0.2000E+01
    -26.617  0.0000E+00  0.2000E+01
    -26.497  0.0000E+00  0.2000E+01
    -26.377  0.0000E+00  0.2000E+01
    -26.257  0.0000E+00  0.2000E+01
    -26.137  0.0000E+00  0.2000E+01
    -26.017  0.0000E+00  0.2000E+01
    -25.897  0.0000E+00  0.2000E+01
    -25.777  0.0000E+00  0.2000E+01
    -25.657  0.0000E+00  0.2000E+01
    -25.537  0.0000E+00  0.2000E+01
    -25.417  0.0000E+00  0.2000E+01
    -25.297  0.0000E+00  0.2000E+01
    -25.178  0.0000E+00  0.2000E+01
    -25.058  0.0000E+00  0.2000E+01
    -24.938  0.0000E+00  0.2000E+01
    -24.818  0.0000E+00  0.2000E+01
    -24.698  0.0000E+00  0.2000E+01
    -24.578  0.0000E+00  0.2000E+01
    -24.458  0.0000E+00  0.2000E+01
    -24.338  0.0000E+00  0.2000E+01
    -24.218  0.0000E+00  0.2000E+01
    -24.098  0.0000E+00  0.2000E+01
    -23.978  0.0000E+00  0.2000E+01
    -23.858  0.0000E+00  0.2000E+01
    -23.738  0.0000E+00  0.2000E+01
    -23.618  0.0000E+00  0.2000E+01
    -23.498  0.0000E+00  0.2000E+01
    -23.378  0.0000E+00  0.2000E+01
    -23.258  0.0000E+00  0.2000E+01
    -23.138  0.0000E+00  0.2000E+01
    -23.018  0.0000E+00  0.2000E+01
    -22.898  0.0000E+00  0.2000E+01
    -22.778  0.0000E+00  0.2000E+01
    -22.658  0.0000E+00  0.2000E+01
    -22.538  0.0000E+00  0.2000E+01
    -22.419  0.0000E+00  0.2000E+01
    -22.299  0.0000E+00  0.2000E+01
    -22.179  0.0000E+00  0.2000E+01
    -22.059  0.0000E+00  0.2000E+01
    -21.939  0.0000E+00  0.2000E+01
    -21.819  0.0000E+00  0.2000E+01
    -21.699  0.0000E+00  0.2000E+01
    -21.579  0.0000E+00  0.2000E+01
    -21.459  0.0000E+00  0.2000E+01
    -21.339  0.0000E+00  0.2000E+01
    -21.219  0.0000E+00  0.2000E+01
    -21.099  0.0000E+00  0.2000E+01
    -20.979  0.0000E+00  0.2000E+01
    -20.859  0.0000E+00  0.2000E+01
    -20.739  0.0000E+00  0.2000E+01
    -20.619  0.0000E+00  0.2000E+01
    -20.499  0.0000E+00  0.2000E+01
    -20.379  0.0000E+00  0.2000E+01
    -20.259  0.0000E+00  0.2000E+01
    -20.139  0.0000E+00  0.2000E+01
    -20.019  0.0000E+00  0.2000E+01
    -19.899  0.0000E+00  0.2000E+01
    -19.779  0.0000E+00  0.2000E+01
    -19.660  0.0000E+00  0.2000E+01
    -19.540  0.0000E+00  0.2000E+01
    -19.420  0.0000E+00  0.2000E+01
    -19.300  0.0000E+00  0.2000E+01
    -19.180  0.0000E+00  0.2000E+01
    -19.060  0.0000E+00  0.2000E+01
    -18.940  0.0000E+00  0.2000E+01
    -18.820  0.0000E+00  0.2000E+01
    -18.700  0.0000E+00  0.2000E+01
    -18.580  0.0000E+00  0.2000E+01
    -18.460  0.0000E+00  0.2000E+01
    -18.340  0.0000E+00  0.2000E+01
    -18.220  0.0000E+00  0.2000E+01
    -18.100  0.0000E+00  0.2000E+01
    -17.980  0.0000E+00  0.2000E+01
    -17.860  0.0000E+00  0.2000E+01
    -17.740  0.0000E+00  0.2000E+01
    -17.620  0.0000E+00  0.2000E+01
    -17.500  0.0000E+00  0.2000E+01
    -17.380  0.0000E+00  0.2000E+01
    -17.260  0.0000E+00  0.2000E+01
    -17.140  0.0000E+00  0.2000E+01
    -17.020  0.0000E+00  0.2000E+01
    -16.901  0.0000E+00  0.2000E+01
    -16.781  0.0000E+00  0.2000E+01
    -16.661  0.0000E+00  0.2000E+01
    -16.541  0.0000E+00  0.2000E+01
    -16.421  0.0000E+00  0.2000E+01
    -16.301  0.0000E+00  0.2000E+01
    -16.181  0.0000E+00  0.2000E+01
    -16.061  0.0000E+00  0.2000E+01
    -15.941  0.0000E+00  0.2000E+01
    -15.821  0.0000E+00  0.2000E+01
    -15.701  0.0000E+00  0.2000E+01
    -15.581  0.0000E+00  0.2000E+01
    -15.461  0.0000E+00  0.2000E+01
    -15.341  0.0000E+00  0.2000E+01
    -15.221  0.0000E+00  0.2000E+01
    -15.101  0.0000E+00  0.2000E+01
    -14.981  0.0000E+00  0.2000E+01
    -14.861  0.0000E+00  0.2000E+01
    -14.741  0.0000E+00  0.2000E+01
    -14.621  0.0000E+00  0.2000E+01
    -14.501  0.0000E+00  0.2000E+01
    -14.381  0.0000E+00  0.2000E+01
    -14.261  0.0000E+00  0.2000E+01
    -14.142  0.0000E+00  0.2000E+01
    -14.022  0.0000E+00  0.2000E+01
    -13.902  0.0000E+00  0.2000E+01
    -13.782  0.0000E+00  0.2000E+01
    -13.662  0.0000E+00  0.2000E+01
    -13.542  0.0000E+00  0.2000E+01
    -13.422  0.0000E+00  0.2000E+01
    -13.302  0.0000E+00  0.2000E+01
    -13.182  0.0000E+00  0.2000E+01
    -13.062  0.0000E+00  0.2000E+01
    -12.942  0.0000E+00  0.2000E+01
    -12.822  0.0000E+00  0.2000E+01
    -12.702  0.0000E+00  0.2000E+01
    -12.582  0.2510E-08  0.2000E+01
    -12.462  0.3058E-01  0.2004E+01
    -12.342  0.1142E+02  0.3374E+01
    -12.222  0.5217E+01  0.4000E+01
    -12.102  0.8697E-03  0.4000E+01
    -11.982  0.2928E-11  0.4000E+01
    -11.862  0.0000E+00  0.4000E+01
    -11.742  0.0000E+00  0.4000E+01
    -11.622  0.0000E+00  0.4000E+01
    -11.503  0.0000E+00  0.4000E+01
    -11.383  0.0000E+00  0.4000E+01
    -11.263  0.0000E+00  0.4000E+01
    -11.143  0.0000E+00  0.4000E+01
    -11.023  0.0000E+00  0.4000E+01
    -10.903  0.0000E+00  0.4000E+01
    -10.783  0.0000E+00  0.4000E+01
    -10.663  0.0000E+00  0.4000E+01
    -10.543  0.0000E+00  0.4000E+01
    -10.423  0.0000E+00  0.4000E+01
    -10.303  0.0000E+00  0.4000E+01
    -10.183  0.0000E+00  0.4000E+01
    -10.063  0.0000E+00  0.4000E+01
     -9.943  0.0000E+00  0.4000E+01
     -9.823  0.0000E+00  0.4000E+01
     -9.703  0.0000E+00  0.4000E+01
     -9.583  0.0000E+00  0.4000E+01
     -9.463  0.0000E+00  0.4000E+01
     -9.343  0.9321E-09  0.4000E+01
     -9.223  0.9293E-02  0.4001E+01
     -9.103  0.2944E+01  0.4354E+01
     -8.983  0.6673E+01  0.5155E+01
     -8.863  0.1945E+02  0.7488E+01
     -8.744  0.3282E+01  0.7882E+01
     -8.624  0.2010E+02  0.1029E+02
     -8.504  0.3311E+02  0.1426E+02
     -8.384  0.2233E+02  0.1694E+02
     -8.264  0.1477E+02  0.1871E+02
     -8.144  0.1494E+02  0.2051E+02
     -8.024  0.2682E+02  0.2372E+02
     -7.904  0.6777E+02  0.3185E+02
     -7.784  0.5394E+01  0.3250E+02
     -7.664  0.1411E+02  0.3419E+02
     -7.544  0.9110E+02  0.4512E+02
     -7.424  0.3011E+02  0.4873E+02
     -7.304  0.2864E+02  0.5217E+02
     -7.184  0.2605E+02  0.5529E+02
     -7.064  0.4550E+02  0.6075E+02
     -6.944  0.6974E+02  0.6912E+02
     -6.824  0.4335E+02  0.7432E+02
     -6.704  0.5487E+02  0.8090E+02
     -6.584  0.8505E+02  0.9110E+02
     -6.464  0.3127E+02  0.9485E+02
     -6.344  0.9583E+01  0.9600E+02
     -6.224  0.3519E+01  0.9642E+02
     -6.104  0.8541E+02  0.1067E+03
     -5.985  0.8150E+02  0.1164E+03
     -5.865  0.6007E+02  0.1237E+03
     -5.745  0.3891E+02  0.1283E+03
     -5.625  0.8749E+02  0.1388E+03
     -5.505  0.5327E+02  0.1452E+03
     -5.385  0.2074E+02  0.1477E+03
     -5.265  0.6706E+02  0.1557E+03
     -5.145  0.4407E+02  0.1610E+03
     -5.025  0.7831E+02  0.1704E+03
     -4.905  0.6230E+02  0.1779E+03
     -4.785  0.2396E+02  0.1808E+03
     -4.665  0.9654E+02  0.1923E+03
     -4.545  0.6801E+02  0.2005E+03
     -4.425  0.5793E+02  0.2075E+03
     -4.305  0.4486E+02  0.2128E+03
     -4.185  0.8381E+02  0.2229E+03
     -4.065  0.1132E+03  0.2365E+03
     -3.945  0.6274E+02  0.2440E+03
     -3.825  0.5959E+02  0.2511E+03
     -3.705  0.7310E+02  0.2599E+03
     -3.585  0.7187E+02  0.2685E+03
     -3.465  0.6400E+02  0.2762E+03
     -3.345  0.1125E+02  0.2776E+03
     -3.226  0.5256E+02  0.2839E+03
     -3.106  0.8564E+02  0.2941E+03
     -2.986  0.1078E+03  0.3071E+03
     -2.866  0.1030E+03  0.3194E+03
     -2.746  0.1729E+03  0.3402E+03
     -2.626  0.7777E+02  0.3495E+03
     -2.506  0.1541E+01  0.3497E+03
     -2.386  0.4666E+02  0.3553E+03
     -2.266  0.1233E+03  0.3701E+03
     -2.146  0.7036E+02  0.3785E+03
     -2.026  0.8545E+02  0.3888E+03
     -1.906  0.6050E+02  0.3960E+03
     -1.786  0.1240E+03  0.4109E+03
     -1.666  0.9355E+02  0.4221E+03
     -1.546  0.5525E+02  0.4287E+03
     -1.426  0.6893E+02  0.4370E+03
     -1.306  0.1604E+03  0.4562E+03
     -1.186  0.9995E+02  0.4682E+03
     -1.066  0.8552E+02  0.4785E+03
     -0.946  0.7346E+02  0.4873E+03
     -0.826  0.1315E+03  0.5031E+03
     -0.706  0.7683E+02  0.5123E+03
     -0.586  0.3980E+02  0.5171E+03
     -0.467  0.9621E+02  0.5286E+03
     -0.347  0.1868E+03  0.5510E+03
     -0.227  0.1138E+03  0.5647E+03
     -0.107  0.6854E+02  0.5729E+03
      0.013  0.3357E+02  0.5769E+03
      0.133  0.1112E+03  0.5903E+03
      0.253  0.8940E+02  0.6010E+03
      0.373  0.7572E+02  0.6101E+03
      0.493  0.1212E+03  0.6246E+03
      0.613  0.8784E+02  0.6351E+03
      0.733  0.5302E+02  0.6415E+03
      0.853  0.5104E+02  0.6476E+03
      0.973  0.1646E+03  0.6674E+03
      1.093  0.1890E+03  0.6900E+03
      1.213  0.9049E+02  0.7009E+03
      1.333  0.6921E+02  0.7092E+03
      1.453  0.8542E+02  0.7194E+03
      1.573  0.1314E+03  0.7352E+03
      1.693  0.1832E+03  0.7572E+03
      1.813  0.9334E+02  0.7684E+03
      1.933  0.6558E+02  0.7762E+03
      2.053  0.1664E+03  0.7962E+03
      2.172  0.7573E+02  0.8053E+03
      2.292  0.7235E+02  0.8140E+03
      2.412  0.7687E+02  0.8232E+03
      2.532  0.9913E+02  0.8351E+03
      2.652  0.1374E+03  0.8516E+03
      2.772  0.7076E+02  0.8600E+03
      2.892  0.1100E+03  0.8732E+03
      3.012  0.2964E+03  0.9088E+03
      3.132  0.8702E+02  0.9192E+03
      3.252  0.7490E+02  0.9282E+03
      3.372  0.1196E+03  0.9426E+03
      3.492  0.1512E+03  0.9607E+03
      3.612  0.7377E+02  0.9695E+03
      3.732  0.1092E+03  0.9826E+03
      3.852  0.6882E+02  0.9909E+03
      3.972  0.1503E+03  0.1009E+04
      4.092  0.1142E+03  0.1023E+04
      4.212  0.1139E+02  0.1024E+04
      4.332  0.7176E-01  0.1024E+04
      4.452  0.5946E-07  0.1024E+04
      4.572  0.0000E+00  0.1024E+04
      4.692  0.0000E+00  0.1024E+04
      4.812  0.0000E+00  0.1024E+04
      4.931  0.0000E+00  0.1024E+04
      5.051  0.0000E+00  0.1024E+04
      5.171  0.0000E+00  0.1024E+04
      5.291  0.0000E+00  0.1024E+04
      5.411  0.0000E+00  0.1024E+04
      5.531  0.0000E+00  0.1024E+04
      5.651  0.0000E+00  0.1024E+04
      5.771  0.0000E+00  0.1024E+04
