         265
 Energy:  -1026.7092387000000      en  -940.93235870000001      edisp  -85.776880000000006     
 X   0.00000000       0.00000000       0.00000000    
 X   16.1980000       0.00000000       0.00000000    
 X   0.00000000       16.1980000       0.00000000    
 X   0.00000000       0.00000000       16.1980000    
 X   16.1980000       16.1980000       0.00000000    
 X   16.1980000       0.00000000       16.1980000    
 X   0.00000000       16.1980000       16.1980000    
 X   16.1980000       16.1980000       16.1980000    
 Al   0.00000000       0.00000000       0.00000000    
 Al   0.00000000       2.02474999       2.02474999    
 Al   2.02474999       0.00000000       2.02474999    
 Al   2.02474999       2.02474999       0.00000000    
 Al   0.00000000       0.00000000       4.04949999    
 Al   0.00000000       2.02474999       6.07425022    
 Al   2.02474999       0.00000000       6.07425022    
 Al   2.02474999       2.02474999       4.04949999    
 Al   0.00000000       0.00000000       8.09899998    
 Al   0.00000000       2.02474999       10.1237497    
 Al   2.02474999       0.00000000       10.1237497    
 Al   2.02474999       2.02474999       8.09899998    
 Al   0.00000000       0.00000000       12.1485004    
 Al   0.00000000       2.02474999       14.1732502    
 Al   2.02474999       0.00000000       14.1732502    
 Al   2.02474999       2.02474999       12.1485004    
 Al   0.00000000       4.04949999       0.00000000    
 Al   0.00000000       6.07425022       2.02474999    
 Al   2.02474999       4.04949999       2.02474999    
 Al   2.02474999       6.07425022       0.00000000    
 Al   0.00000000       4.04949999       4.04949999    
 Al   0.00000000       6.07425022       6.07425022    
 Al   2.02474999       4.04949999       6.07425022    
 Al   2.02474999       6.07425022       4.04949999    
 Al   0.00000000       4.04949999       8.09899998    
 Al   0.00000000       6.07425022       10.1237497    
 Al   2.02474999       4.04949999       10.1237497    
 Al   2.02474999       6.07425022       8.09899998    
 Al   0.00000000       4.04949999       12.1485004    
 Al   0.00000000       6.07425022       14.1732502    
 Al   2.02474999       4.04949999       14.1732502    
 Al   2.02474999       6.07425022       12.1485004    
 Al   0.00000000       8.09899998       0.00000000    
 Al   0.00000000       10.1237497       2.02474999    
 Al   2.02474999       8.09899998       2.02474999    
 Al   2.02474999       10.1237497       0.00000000    
 Al   0.00000000       8.09899998       4.04949999    
 Al   0.00000000       10.1237497       6.07425022    
 Al   2.02474999       8.09899998       6.07425022    
 Al   2.02474999       10.1237497       4.04949999    
 Al   0.00000000       8.09899998       8.09899998    
 Al   0.00000000       10.1237497       10.1237497    
 Al   2.02474999       8.09899998       10.1237497    
 Al   2.02474999       10.1237497       8.09899998    
 Al   0.00000000       8.09899998       12.1485004    
 Al   0.00000000       10.1237497       14.1732502    
 Al   2.02474999       8.09899998       14.1732502    
 Al   2.02474999       10.1237497       12.1485004    
 Al   0.00000000       12.1485004       0.00000000    
 Al   0.00000000       14.1732502       2.02474999    
 Al   2.02474999       12.1485004       2.02474999    
 Al   2.02474999       14.1732502       0.00000000    
 Al   0.00000000       12.1485004       4.04949999    
 Al   0.00000000       14.1732502       6.07425022    
 Al   2.02474999       12.1485004       6.07425022    
 Al   2.02474999       14.1732502       4.04949999    
 Al   0.00000000       12.1485004       8.09899998    
 Al   0.00000000       14.1732502       10.1237497    
 Al   2.02474999       12.1485004       10.1237497    
 Al   2.02474999       14.1732502       8.09899998    
 Al   0.00000000       12.1485004       12.1485004    
 Al   0.00000000       14.1732502       14.1732502    
 Al   2.02474999       12.1485004       14.1732502    
 Al   2.02474999       14.1732502       12.1485004    
 Al   4.04949999       0.00000000       0.00000000    
 Al   4.04949999       2.02474999       2.02474999    
 Al   6.07425022       0.00000000       2.02474999    
 Al   6.07425022       2.02474999       0.00000000    
 Al   4.04949999       0.00000000       4.04949999    
 Al   4.04949999       2.02474999       6.07425022    
 Al   6.07425022       0.00000000       6.07425022    
 Al   6.07425022       2.02474999       4.04949999    
 Al   4.04949999       0.00000000       8.09899998    
 Al   4.04949999       2.02474999       10.1237497    
 Al   6.07425022       0.00000000       10.1237497    
 Al   6.07425022       2.02474999       8.09899998    
 Al   4.04949999       0.00000000       12.1485004    
 Al   4.04949999       2.02474999       14.1732502    
 Al   6.07425022       0.00000000       14.1732502    
 Al   6.07425022       2.02474999       12.1485004    
 Al   4.04949999       4.04949999       0.00000000    
 Al   4.04949999       6.07425022       2.02474999    
 Al   6.07425022       4.04949999       2.02474999    
 Al   6.07425022       6.07425022       0.00000000    
 Al   4.04949999       4.04949999       4.04949999    
 Al   4.04949999       6.07425022       6.07425022    
 Al   6.07425022       4.04949999       6.07425022    
 Al   6.07425022       6.07425022       4.04949999    
 Al   4.04949999       4.04949999       8.09899998    
 Al   4.04949999       6.07425022       10.1237497    
 Al   6.07425022       4.04949999       10.1237497    
 Al   6.07425022       6.07425022       8.09899998    
 Al   4.04949999       4.04949999       12.1485004    
 Al   4.04949999       6.07425022       14.1732502    
 Al   6.07425022       4.04949999       14.1732502    
 Al   6.07425022       6.07425022       12.1485004    
 Al   4.04949999       8.09899998       0.00000000    
 Al   4.04949999       10.1237497       2.02474999    
 Al   6.07425022       8.09899998       2.02474999    
 Al   6.07425022       10.1237497       0.00000000    
 Al   4.04949999       8.09899998       4.04949999    
 Al   4.04949999       10.1237497       6.07425022    
 Al   6.07425022       8.09899998       6.07425022    
 Al   6.07425022       10.1237497       4.04949999    
 Al   4.04949999       8.09899998       8.09899998    
 Al   4.04949999       10.1237497       10.1237497    
 Al   6.07425022       8.09899998       10.1237497    
 Al   6.07425022       10.1237497       8.09899998    
 Al   4.04949999       8.09899998       12.1485004    
 Al   4.04949999       10.1237497       14.1732502    
 Al   6.07425022       8.09899998       14.1732502    
 Al   6.07425022       10.1237497       12.1485004    
 Al   4.04949999       12.1485004       0.00000000    
 Al   4.04949999       14.1732502       2.02474999    
 Al   6.07425022       12.1485004       2.02474999    
 Al   6.07425022       14.1732502       0.00000000    
 Al   4.04949999       12.1485004       4.04949999    
 Al   4.04949999       14.1732502       6.07425022    
 Al   6.07425022       12.1485004       6.07425022    
 Al   6.07425022       14.1732502       4.04949999    
 Al   4.04949999       12.1485004       8.09899998    
 Al   4.04949999       14.1732502       10.1237497    
 Al   6.07425022       12.1485004       10.1237497    
 Al   6.07425022       14.1732502       8.09899998    
 Al   4.04949999       12.1485004       12.1485004    
 Al   4.04949999       14.1732502       14.1732502    
 Al   6.07425022       12.1485004       14.1732502    
 Al   6.07425022       14.1732502       12.1485004    
 Al   8.09899998       0.00000000       0.00000000    
 Al   8.09899998       2.02474999       2.02474999    
 Al   10.1237497       0.00000000       2.02474999    
 Al   10.1237497       2.02474999       0.00000000    
 Al   8.09899998       0.00000000       4.04949999    
 Al   8.09899998       2.02474999       6.07425022    
 Al   10.1237497       0.00000000       6.07425022    
 Al   10.1237497       2.02474999       4.04949999    
 Al   8.09899998       0.00000000       8.09899998    
 Al   8.09899998       2.02474999       10.1237497    
 Al   10.1237497       0.00000000       10.1237497    
 Al   10.1237497       2.02474999       8.09899998    
 Al   8.09899998       0.00000000       12.1485004    
 Al   8.09899998       2.02474999       14.1732502    
 Al   10.1237497       0.00000000       14.1732502    
 Al   10.1237497       2.02474999       12.1485004    
 Al   8.09899998       4.04949999       0.00000000    
 Al   8.09899998       6.07425022       2.02474999    
 Al   10.1237497       4.04949999       2.02474999    
 Al   10.1237497       6.07425022       0.00000000    
 Al   8.09899998       4.04949999       4.04949999    
 Al   8.09899998       6.07425022       6.07425022    
 Al   10.1237497       4.04949999       6.07425022    
 Al   10.1237497       6.07425022       4.04949999    
 Al   8.09899998       4.04949999       8.09899998    
 Al   8.09899998       6.07425022       10.1237497    
 Al   10.1237497       4.04949999       10.1237497    
 Al   10.1237497       6.07425022       8.09899998    
 Al   8.09899998       4.04949999       12.1485004    
 Al   8.09899998       6.07425022       14.1732502    
 Al   10.1237497       4.04949999       14.1732502    
 Al   10.1237497       6.07425022       12.1485004    
 Al   8.09899998       8.09899998       0.00000000    
 Al   8.09899998       10.1237497       2.02474999    
 Al   10.1237497       8.09899998       2.02474999    
 Al   10.1237497       10.1237497       0.00000000    
 Al   8.09899998       8.09899998       4.04949999    
 Al   8.09899998       10.1237497       6.07425022    
 Al   10.1237497       8.09899998       6.07425022    
 Al   10.1237497       10.1237497       4.04949999    
 Al   8.09899998       8.09899998       8.09899998    
 Al   8.09899998       10.1237497       10.1237497    
 Al   10.1237497       8.09899998       10.1237497    
 Al   10.1237497       10.1237497       8.09899998    
 Al   8.09899998       8.09899998       12.1485004    
 Al   8.09899998       10.1237497       14.1732502    
 Al   10.1237497       8.09899998       14.1732502    
 Al   10.1237497       10.1237497       12.1485004    
 Al   8.09899998       12.1485004       0.00000000    
 Al   8.09899998       14.1732502       2.02474999    
 Al   10.1237497       12.1485004       2.02474999    
 Al   10.1237497       14.1732502       0.00000000    
 Al   8.09899998       12.1485004       4.04949999    
 Al   8.09899998       14.1732502       6.07425022    
 Al   10.1237497       12.1485004       6.07425022    
 Al   10.1237497       14.1732502       4.04949999    
 Al   8.09899998       12.1485004       8.09899998    
 Al   8.09899998       14.1732502       10.1237497    
 Al   10.1237497       12.1485004       10.1237497    
 Al   10.1237497       14.1732502       8.09899998    
 Al   8.09899998       12.1485004       12.1485004    
 Al   8.09899998       14.1732502       14.1732502    
 Al   10.1237497       12.1485004       14.1732502    
 Al   10.1237497       14.1732502       12.1485004    
 Al   12.1485004       0.00000000       0.00000000    
 Al   12.1485004       2.02474999       2.02474999    
 Al   14.1732502       0.00000000       2.02474999    
 Al   14.1732502       2.02474999       0.00000000    
 Al   12.1485004       0.00000000       4.04949999    
 Al   12.1485004       2.02474999       6.07425022    
 Al   14.1732502       0.00000000       6.07425022    
 Al   14.1732502       2.02474999       4.04949999    
 Al   12.1485004       0.00000000       8.09899998    
 Al   12.1485004       2.02474999       10.1237497    
 Al   14.1732502       0.00000000       10.1237497    
 Al   14.1732502       2.02474999       8.09899998    
 Al   12.1485004       0.00000000       12.1485004    
 Al   12.1485004       2.02474999       14.1732502    
 Al   14.1732502       0.00000000       14.1732502    
 Al   14.1732502       2.02474999       12.1485004    
 Al   12.1485004       4.04949999       0.00000000    
 Al   12.1485004       6.07425022       2.02474999    
 Al   14.1732502       4.04949999       2.02474999    
 Al   14.1732502       6.07425022       0.00000000    
 Al   12.1485004       4.04949999       4.04949999    
 Al   12.1485004       6.07425022       6.07425022    
 Al   14.1732502       4.04949999       6.07425022    
 Al   14.1732502       6.07425022       4.04949999    
 Al   12.1485004       4.04949999       8.09899998    
 Al   12.1485004       6.07425022       10.1237497    
 Al   14.1732502       4.04949999       10.1237497    
 Al   14.1732502       6.07425022       8.09899998    
 Al   12.1485004       4.04949999       12.1485004    
 Al   12.1485004       6.07425022       14.1732502    
 Al   14.1732502       4.04949999       14.1732502    
 Al   14.1732502       6.07425022       12.1485004    
 Al   12.1485004       8.09899998       0.00000000    
 Al   12.1485004       10.1237497       2.02474999    
 Al   14.1732502       8.09899998       2.02474999    
 Al   14.1732502       10.1237497       0.00000000    
 Al   12.1485004       8.09899998       4.04949999    
 Al   12.1485004       10.1237497       6.07425022    
 Al   14.1732502       8.09899998       6.07425022    
 Al   14.1732502       10.1237497       4.04949999    
 Al   12.1485004       8.09899998       8.09899998    
 Al   12.1485004       10.1237497       10.1237497    
 Al   14.1732502       8.09899998       10.1237497    
 Al   14.1732502       10.1237497       8.09899998    
 Al   12.1485004       8.09899998       12.1485004    
 Al   12.1485004       10.1237497       14.1732502    
 Al   14.1732502       8.09899998       14.1732502    
 Al   14.1732502       10.1237497       12.1485004    
 Al   12.1485004       12.1485004       0.00000000    
 Al   12.1485004       14.1732502       2.02474999    
 Al   14.1732502       12.1485004       2.02474999    
 Al   14.1732502       14.1732502       0.00000000    
 Al   12.1485004       12.1485004       4.04949999    
 Al   12.1485004       14.1732502       6.07425022    
 Al   14.1732502       12.1485004       6.07425022    
 Al   14.1732502       14.1732502       4.04949999    
 Al   12.1485004       12.1485004       8.09899998    
 Al   12.1485004       14.1732502       10.1237497    
 Al   14.1732502       12.1485004       10.1237497    
 Al   14.1732502       14.1732502       8.09899998    
 Al   12.1485004       12.1485004       12.1485004    
 Al   12.1485004       14.1732502       14.1732502    
 Al   14.1732502       12.1485004       14.1732502    
 Al   14.1732502       14.1732502       12.1485004    
 O    1.01238000       0.00000000       0.00000000    
         265
 Energy:  -642.62530979999997      en  -556.84536979999996      edisp  -85.779939999999996     
 X   0.00000000       0.00000000       0.00000000    
 X   16.1980000       0.00000000       0.00000000    
 X   0.00000000       16.1980000       0.00000000    
 X   0.00000000       0.00000000       16.1980000    
 X   16.1980000       16.1980000       0.00000000    
 X   16.1980000       0.00000000       16.1980000    
 X   0.00000000       16.1980000       16.1980000    
 X   16.1980000       16.1980000       16.1980000    
 Al  -2.68847990      -0.00000000      -0.00000000    
 Al  -1.44999998E-03   2.02987003       2.02987003    
 Al   2.03108001      -0.00000000       2.03394008    
 Al   2.03108001       2.03394008      -0.00000000    
 Al   2.20000002E-04  -0.00000000       4.04925013    
 Al   1.19999997E-04   2.02452993       6.07415009    
 Al   2.02446008      -0.00000000       6.07390022    
 Al   2.02489996       2.02473998       4.05035019    
 Al   2.89999996E-04  -0.00000000       8.09899998    
 Al   1.19999997E-04   2.02452993       10.1238499    
 Al   2.02446008      -0.00000000       10.1240997    
 Al   2.02463007       2.02468991       8.09899998    
 Al   2.20000002E-04  -0.00000000       12.1487503    
 Al  -1.44999998E-03   2.02987003       14.1681299    
 Al   2.03108001      -0.00000000       14.1640596    
 Al   2.02489996       2.02473998       12.1476498    
 Al   2.20000002E-04   4.04925013      -0.00000000    
 Al   1.19999997E-04   6.07415009       2.02452993    
 Al   2.02489996       4.05035019       2.02473998    
 Al   2.02446008       6.07390022      -0.00000000    
 Al   2.50000012E-04   4.04893017       4.04893017    
 Al   2.99999992E-05   6.07423019       6.07423019    
 Al   2.02448010       4.04927015       6.07410002    
 Al   2.02448010       6.07410002       4.04927015    
 Al   2.50000012E-04   4.04938984       8.09899998    
 Al   2.99999992E-05   6.07423019       10.1237698    
 Al   2.02448010       4.04927015       10.1239004    
 Al   2.02477002       6.07447004       8.09899998    
 Al   2.50000012E-04   4.04893017       12.1490698    
 Al   1.19999997E-04   6.07415009       14.1734695    
 Al   2.02489996       4.05035019       14.1732597    
 Al   2.02448010       6.07410002       12.1487303    
 Al   2.89999996E-04   8.09899998      -0.00000000    
 Al   1.19999997E-04   10.1238499       2.02452993    
 Al   2.02463007       8.09899998       2.02468991    
 Al   2.02446008       10.1240997      -0.00000000    
 Al   2.50000012E-04   8.09899998       4.04938984    
 Al   2.99999992E-05   10.1237698       6.07423019    
 Al   2.02477002       8.09899998       6.07447004    
 Al   2.02448010       10.1239004       4.04927015    
 Al   0.00000000       8.09899998       8.09899998    
 Al   2.99999992E-05   10.1237698       10.1237698    
 Al   2.02477002       8.09899998       10.1235304    
 Al   2.02477002       10.1235304       8.09899998    
 Al   2.50000012E-04   8.09899998       12.1486101    
 Al   1.19999997E-04   10.1238499       14.1734695    
 Al   2.02463007       8.09899998       14.1733103    
 Al   2.02448010       10.1239004       12.1487303    
 Al   2.20000002E-04   12.1487503      -0.00000000    
 Al  -1.44999998E-03   14.1681299       2.02987003    
 Al   2.02489996       12.1476498       2.02473998    
 Al   2.03108001       14.1640596      -0.00000000    
 Al   2.50000012E-04   12.1490698       4.04893017    
 Al   1.19999997E-04   14.1734695       6.07415009    
 Al   2.02448010       12.1487303       6.07410002    
 Al   2.02489996       14.1732597       4.05035019    
 Al   2.50000012E-04   12.1486101       8.09899998    
 Al   1.19999997E-04   14.1734695       10.1238499    
 Al   2.02448010       12.1487303       10.1239004    
 Al   2.02463007       14.1733103       8.09899998    
 Al   2.50000012E-04   12.1490698       12.1490698    
 Al  -1.44999998E-03   14.1681299       14.1681299    
 Al   2.02489996       12.1476498       14.1732597    
 Al   2.02489996       14.1732597       12.1476498    
 Al   4.05640984      -0.00000000      -0.00000000    
 Al   4.04786015       2.02357006       2.02357006    
 Al   6.07396984      -0.00000000       2.02425003    
 Al   6.07396984       2.02425003      -0.00000000    
 Al   4.04890013      -0.00000000       4.04946995    
 Al   4.04926014       2.02448010       6.07428980    
 Al   6.07417011      -0.00000000       6.07418013    
 Al   6.07446003       2.02486992       4.04956007    
 Al   4.04952002      -0.00000000       8.09899998    
 Al   4.04926014       2.02448010       10.1237097    
 Al   6.07417011      -0.00000000       10.1238203    
 Al   6.07423019       2.02485991       8.09899998    
 Al   4.04890013      -0.00000000       12.1485300    
 Al   4.04786015       2.02357006       14.1744299    
 Al   6.07396984      -0.00000000       14.1737499    
 Al   6.07446003       2.02486992       12.1484404    
 Al   4.04890013       4.04946995      -0.00000000    
 Al   4.04926014       6.07428980       2.02448010    
 Al   6.07446003       4.04956007       2.02486992    
 Al   6.07417011       6.07418013      -0.00000000    
 Al   4.04980993       4.04966021       4.04966021    
 Al   4.04927015       6.07419014       6.07419014    
 Al   6.07417011       4.04933977       6.07421017    
 Al   6.07417011       6.07421017       4.04933977    
 Al   4.04947996       4.04933023       8.09899998    
 Al   4.04927015       6.07419014       10.1238098    
 Al   6.07417011       4.04933977       10.1237898    
 Al   6.07415009       6.07407999       8.09899998    
 Al   4.04980993       4.04966021       12.1483402    
 Al   4.04926014       6.07428980       14.1735201    
 Al   6.07446003       4.04956007       14.1731300    
 Al   6.07417011       6.07421017       12.1486597    
 Al   4.04952002       8.09899998      -0.00000000    
 Al   4.04926014       10.1237097       2.02448010    
 Al   6.07423019       8.09899998       2.02485991    
 Al   6.07417011       10.1238203      -0.00000000    
 Al   4.04947996       8.09899998       4.04933023    
 Al   4.04927015       10.1238098       6.07419014    
 Al   6.07415009       8.09899998       6.07407999    
 Al   6.07417011       10.1237898       4.04933977    
 Al   4.04947996       8.09899998       8.09899998    
 Al   4.04927015       10.1238098       10.1238098    
 Al   6.07415009       8.09899998       10.1239204    
 Al   6.07415009       10.1239204       8.09899998    
 Al   4.04947996       8.09899998       12.1486702    
 Al   4.04926014       10.1237097       14.1735201    
 Al   6.07423019       8.09899998       14.1731396    
 Al   6.07417011       10.1237898       12.1486597    
 Al   4.04890013       12.1485300      -0.00000000    
 Al   4.04786015       14.1744299       2.02357006    
 Al   6.07446003       12.1484404       2.02486992    
 Al   6.07396984       14.1737499      -0.00000000    
 Al   4.04980993       12.1483402       4.04966021    
 Al   4.04926014       14.1735201       6.07428980    
 Al   6.07417011       12.1486597       6.07421017    
 Al   6.07446003       14.1731300       4.04956007    
 Al   4.04947996       12.1486702       8.09899998    
 Al   4.04926014       14.1735201       10.1237097    
 Al   6.07417011       12.1486597       10.1237898    
 Al   6.07423019       14.1731396       8.09899998    
 Al   4.04980993       12.1483402       12.1483402    
 Al   4.04786015       14.1744299       14.1744299    
 Al   6.07446003       12.1484404       14.1731300    
 Al   6.07446003       14.1731300       12.1484404    
 Al   8.09918022      -0.00000000      -0.00000000    
 Al   8.09893036       2.02468991       2.02468991    
 Al   10.1238403      -0.00000000       2.02453995    
 Al   10.1238403       2.02453995      -0.00000000    
 Al   8.09891987      -0.00000000       4.04954004    
 Al   8.09885025       2.02473998       6.07414007    
 Al   10.1238403      -0.00000000       6.07406998    
 Al   10.1237898       2.02472997       4.04939985    
 Al   8.09885979      -0.00000000       8.09899998    
 Al   8.09885025       2.02473998       10.1238604    
 Al   10.1238403      -0.00000000       10.1239300    
 Al   10.1239300       2.02478004       8.09899998    
 Al   8.09891987      -0.00000000       12.1484604    
 Al   8.09893036       2.02468991       14.1733103    
 Al   10.1238403      -0.00000000       14.1734600    
 Al   10.1237898       2.02472997       12.1485996    
 Al   8.09891987       4.04954004      -0.00000000    
 Al   8.09885025       6.07414007       2.02473998    
 Al   10.1237898       4.04939985       2.02472997    
 Al   10.1238403       6.07406998      -0.00000000    
 Al   8.09885979       4.04941988       4.04941988    
 Al   8.09912968       6.07420015       6.07420015    
 Al   10.1235800       4.04940987       6.07439995    
 Al   10.1235800       6.07439995       4.04940987    
 Al   8.09902954       4.04942989       8.09899998    
 Al   8.09912968       6.07420015       10.1238003    
 Al   10.1235800       4.04940987       10.1236000    
 Al   10.1235800       6.07449007       8.09899998    
 Al   8.09885979       4.04941988       12.1485796    
 Al   8.09885025       6.07414007       14.1732597    
 Al   10.1237898       4.04939985       14.1732702    
 Al   10.1235800       6.07439995       12.1485901    
 Al   8.09885979       8.09899998      -0.00000000    
 Al   8.09885025       10.1238604       2.02473998    
 Al   10.1239300       8.09899998       2.02478004    
 Al   10.1238403       10.1239300      -0.00000000    
 Al   8.09902954       8.09899998       4.04942989    
 Al   8.09912968       10.1238003       6.07420015    
 Al   10.1235800       8.09899998       6.07449007    
 Al   10.1235800       10.1236000       4.04940987    
 Al   8.09988976       8.09899998       8.09899998    
 Al   8.09912968       10.1238003       10.1238003    
 Al   10.1235800       8.09899998       10.1235104    
 Al   10.1235800       10.1235104       8.09899998    
 Al   8.09902954       8.09899998       12.1485701    
 Al   8.09885025       10.1238604       14.1732597    
 Al   10.1239300       8.09899998       14.1732197    
 Al   10.1235800       10.1236000       12.1485901    
 Al   8.09891987       12.1484604      -0.00000000    
 Al   8.09893036       14.1733103       2.02468991    
 Al   10.1237898       12.1485996       2.02472997    
 Al   10.1238403       14.1734600      -0.00000000    
 Al   8.09885979       12.1485796       4.04941988    
 Al   8.09885025       14.1732597       6.07414007    
 Al   10.1235800       12.1485901       6.07439995    
 Al   10.1237898       14.1732702       4.04939985    
 Al   8.09902954       12.1485701       8.09899998    
 Al   8.09885025       14.1732597       10.1238604    
 Al   10.1235800       12.1485901       10.1236000    
 Al   10.1239300       14.1732197       8.09899998    
 Al   8.09885979       12.1485796       12.1485796    
 Al   8.09893036       14.1733103       14.1733103    
 Al   10.1237898       12.1485996       14.1732702    
 Al   10.1237898       14.1732702       12.1485996    
 Al   12.1485100      -0.00000000      -0.00000000    
 Al   12.1486597       2.02434993       2.02434993    
 Al   14.1745300      -0.00000000       2.02402997    
 Al   14.1745300       2.02402997      -0.00000000    
 Al   12.1482496      -0.00000000       4.04961014    
 Al   12.1484804       2.02479005       6.07433987    
 Al   14.1734304      -0.00000000       6.07419014    
 Al   14.1738300       2.02434993       4.04925013    
 Al   12.1484804      -0.00000000       8.09899998    
 Al   12.1484804       2.02479005       10.1236601    
 Al   14.1734304      -0.00000000       10.1238098    
 Al   14.1734104       2.02469993       8.09899998    
 Al   12.1482496      -0.00000000       12.1483898    
 Al   12.1486597       2.02434993       14.1736498    
 Al   14.1745300      -0.00000000       14.1739702    
 Al   14.1738300       2.02434993       12.1487503    
 Al   12.1482496       4.04961014      -0.00000000    
 Al   12.1484804       6.07433987       2.02479005    
 Al   14.1738300       4.04925013       2.02434993    
 Al   14.1734304       6.07419014      -0.00000000    
 Al   12.1486998       4.04934978       4.04934978    
 Al   12.1486902       6.07428980       6.07428980    
 Al   14.1732197       4.04947996       6.07415009    
 Al   14.1732197       6.07415009       4.04947996    
 Al   12.1485004       4.04951000       8.09899998    
 Al   12.1486902       6.07428980       10.1237097    
 Al   14.1732197       4.04947996       10.1238499    
 Al   14.1731901       6.07438993       8.09899998    
 Al   12.1486998       4.04934978       12.1486502    
 Al   12.1484804       6.07433987       14.1732101    
 Al   14.1738300       4.04925013       14.1736498    
 Al   14.1732197       6.07415009       12.1485205    
 Al   12.1484804       8.09899998      -0.00000000    
 Al   12.1484804       10.1236601       2.02479005    
 Al   14.1734104       8.09899998       2.02469993    
 Al   14.1734304       10.1238098      -0.00000000    
 Al   12.1485004       8.09899998       4.04951000    
 Al   12.1486902       10.1237097       6.07428980    
 Al   14.1731901       8.09899998       6.07438993    
 Al   14.1732197       10.1238499       4.04947996    
 Al   12.1487303       8.09899998       8.09899998    
 Al   12.1486902       10.1237097       10.1237097    
 Al   14.1731901       8.09899998       10.1236095    
 Al   14.1731901       10.1236095       8.09899998    
 Al   12.1485004       8.09899998       12.1484900    
 Al   12.1484804       10.1236601       14.1732101    
 Al   14.1734104       8.09899998       14.1732998    
 Al   14.1732197       10.1238499       12.1485205    
 Al   12.1482496       12.1483898      -0.00000000    
 Al   12.1486597       14.1736498       2.02434993    
 Al   14.1738300       12.1487503       2.02434993    
 Al   14.1745300       14.1739702      -0.00000000    
 Al   12.1486998       12.1486502       4.04934978    
 Al   12.1484804       14.1732101       6.07433987    
 Al   14.1732197       12.1485205       6.07415009    
 Al   14.1738300       14.1736498       4.04925013    
 Al   12.1485004       12.1484900       8.09899998    
 Al   12.1484804       14.1732101       10.1236601    
 Al   14.1732197       12.1485205       10.1238499    
 Al   14.1734104       14.1732998       8.09899998    
 Al   12.1486998       12.1486502       12.1486502    
 Al   12.1486597       14.1736498       14.1736498    
 Al   14.1738300       12.1487503       14.1736498    
 Al   14.1738300       14.1736498       12.1487503    
 O    3.67319989      -0.00000000      -0.00000000    
         265
 Energy:  -1053.9379488000000      en  -968.16173879999997      edisp  -85.776210000000006     
 X   0.00000000       0.00000000       0.00000000    
 X   16.1980000       0.00000000       0.00000000    
 X   0.00000000       16.1980000       0.00000000    
 X   0.00000000       0.00000000       16.1980000    
 X   16.1980000       16.1980000       0.00000000    
 X   16.1980000       0.00000000       16.1980000    
 X   0.00000000       16.1980000       16.1980000    
 X   16.1980000       16.1980000       16.1980000    
 Al -0.366140008      -0.00000000      -0.00000000    