 running on    1 total cores
 distrk:  each k-point on    1 cores,    1 groups
 distr:  one band on    1 cores,    1 groups
 OpenACC runtime initialized ...    1 GPUs detected
 vasp.6.2.1 16May21 (build Jun 16 2021 03:23:30) complex                         
 POSCAR found type information on POSCAR NiO 
 POSCAR found :  2 types and     253 ions
 scaLAPACK will be used selectively (only on CPU)
 LDA part: xc-table for Pade appr. of Perdew
 POSCAR found type information on POSCAR NiO 
 POSCAR found :  2 types and     253 ions
 POSCAR, INCAR and KPOINTS ok, starting setup
 FFT: planning ...
 WAVECAR not read
 entering main loop
       N       E                     dE             d eps       ncg     rms          rms(c)
DAV:   1     0.223093042340E+05    0.22309E+05   -0.98315E+05  6076   0.134E+03
DAV:   2     0.960770162980E+02   -0.22213E+05   -0.21221E+05  6060   0.469E+02
DAV:   3    -0.133355479350E+04   -0.14296E+04   -0.12052E+04  6792   0.131E+02
DAV:   4    -0.155044245550E+04   -0.21689E+03   -0.18426E+03 10680   0.489E+01
DAV:   5    -0.156066564317E+04   -0.10223E+02   -0.97213E+01  9296   0.117E+01    0.142E+02
DAV:   6    -0.194114194649E+04   -0.38048E+03   -0.26875E+03  7976   0.173E+02    0.289E+02
DAV:   7    -0.171093461215E+04    0.23021E+03   -0.10001E+03  6528   0.145E+02    0.234E+02
DAV:   8    -0.208798417916E+04   -0.37705E+03   -0.62102E+02  8000   0.143E+02    0.321E+02
DAV:   9    -0.189852069797E+04    0.18946E+03   -0.26622E+02  6608   0.112E+02    0.281E+02
DAV:  10    -0.166941142947E+04    0.22911E+03   -0.33520E+02  8616   0.769E+01    0.212E+02
DAV:  11    -0.151415738024E+04    0.15525E+03   -0.25663E+02  6512   0.752E+01    0.174E+02
DAV:  12    -0.154853656608E+04   -0.34379E+02   -0.43125E+02  7776   0.109E+02    0.192E+02
DAV:  13    -0.151216292997E+04    0.36374E+02   -0.23224E+02  6536   0.774E+01    0.160E+02
DAV:  14    -0.148737325792E+04    0.24790E+02   -0.17444E+02  6408   0.767E+01    0.175E+02
DAV:  15    -0.148750962174E+04   -0.13636E+00   -0.10316E+02  6448   0.585E+01    0.182E+02
DAV:  16    -0.147034201629E+04    0.17168E+02   -0.73739E+01  6440   0.580E+01    0.163E+02
DAV:  17    -0.143185346612E+04    0.38489E+02   -0.69988E+01  6696   0.464E+01    0.153E+02
DAV:  18    -0.141099443489E+04    0.20859E+02   -0.56618E+01  6616   0.420E+01    0.142E+02
DAV:  19    -0.140386666843E+04    0.71278E+01   -0.51479E+01  6376   0.420E+01    0.140E+02
DAV:  20    -0.139808216673E+04    0.57845E+01   -0.39668E+01  6808   0.344E+01    0.139E+02
DAV:  21    -0.136413060301E+04    0.33952E+02   -0.29057E+01  6376   0.327E+01    0.106E+02
DAV:  22    -0.134174128114E+04    0.22389E+02   -0.16608E+01  6408   0.257E+01    0.789E+01
DAV:  23    -0.133495137378E+04    0.67899E+01   -0.11202E+01  6488   0.178E+01    0.653E+01
DAV:  24    -0.133408331491E+04    0.86806E+00   -0.72235E+00  6552   0.144E+01    0.698E+01
DAV:  25    -0.133106743891E+04    0.30159E+01   -0.65218E+00  6552   0.150E+01    0.627E+01
DAV:  26    -0.132520986221E+04    0.58576E+01   -0.36815E+00  6552   0.104E+01    0.430E+01
DAV:  27    -0.132292353240E+04    0.22863E+01   -0.26452E+00  6536   0.893E+00    0.353E+01
DAV:  28    -0.132181407217E+04    0.11095E+01   -0.16186E+00  6664   0.640E+00    0.315E+01
DAV:  29    -0.132126143024E+04    0.55264E+00   -0.13685E+00  6584   0.612E+00    0.288E+01
DAV:  30    -0.132150365679E+04   -0.24223E+00   -0.12959E+00  6680   0.618E+00    0.319E+01
DAV:  31    -0.132216461207E+04   -0.66096E+00   -0.13475E+00  6680   0.722E+00    0.344E+01
DAV:  32    -0.132157197976E+04    0.59263E+00   -0.10292E+00  6680   0.522E+00    0.315E+01
DAV:  33    -0.132155024518E+04    0.21735E-01   -0.63222E-01  6760   0.476E+00    0.330E+01
DAV:  34    -0.132056724111E+04    0.98300E+00   -0.65228E-01  6744   0.470E+00    0.272E+01
DAV:  35    -0.131972284820E+04    0.84439E+00   -0.10074E+00  6984   0.602E+00    0.209E+01
DAV:  36    -0.131978396156E+04   -0.61113E-01   -0.11757E+00  6824   0.654E+00    0.264E+01
DAV:  37    -0.131932687339E+04    0.45709E+00   -0.81816E-01  6728   0.467E+00    0.247E+01
DAV:  38    -0.131874195350E+04    0.58492E+00   -0.40309E-01  6688   0.301E+00    0.189E+01
DAV:  39    -0.131852432390E+04    0.21763E+00   -0.17359E-01  6568   0.171E+00    0.153E+01
DAV:  40    -0.131850291498E+04    0.21409E-01   -0.28734E-01  6944   0.310E+00    0.130E+01
DAV:  41    -0.131839718654E+04    0.10573E+00   -0.23678E-01  6744   0.271E+00    0.108E+01
DAV:  42    -0.131834511070E+04    0.52076E-01   -0.24152E-01  6712   0.278E+00    0.975E+00
DAV:  43    -0.131822168786E+04    0.12342E+00   -0.14460E-01  6712   0.203E+00    0.844E+00
DAV:  44    -0.131825182924E+04   -0.30141E-01   -0.13235E-01  7320   0.207E+00    0.865E+00
DAV:  45    -0.131818378321E+04    0.68046E-01   -0.11760E-01  6856   0.188E+00    0.739E+00
DAV:  46    -0.131818903333E+04   -0.52501E-02   -0.66436E-02  6856   0.135E+00    0.787E+00
DAV:  47    -0.131814951491E+04    0.39518E-01   -0.39556E-02  6712   0.887E-01    0.660E+00
DAV:  48    -0.131812064340E+04    0.28872E-01   -0.25128E-02  6696   0.749E-01    0.555E+00
DAV:  49    -0.131813578815E+04   -0.15145E-01   -0.40035E-02  7000   0.104E+00    0.570E+00
DAV:  50    -0.131811638919E+04    0.19399E-01   -0.37162E-02  7000   0.108E+00    0.506E+00
DAV:  51    -0.131818203866E+04   -0.65649E-01   -0.76124E-02  8440   0.165E+00    0.755E+00
DAV:  52    -0.131812261042E+04    0.59428E-01   -0.48370E-02  7840   0.125E+00    0.559E+00
DAV:  53    -0.131807907872E+04    0.43532E-01   -0.32730E-02  7816   0.105E+00    0.317E+00
DAV:  54    -0.131807103645E+04    0.80423E-02   -0.17057E-02  7656   0.619E-01    0.266E+00
DAV:  55    -0.131806108111E+04    0.99553E-02   -0.10867E-02  7536   0.553E-01    0.175E+00
DAV:  56    -0.131807240731E+04   -0.11326E-01   -0.19386E-02  8896   0.714E-01    0.243E+00
DAV:  57    -0.131806407627E+04    0.83310E-02   -0.13498E-02  7928   0.637E-01    0.152E+00
DAV:  58    -0.131806076437E+04    0.33119E-02   -0.50082E-03  7856   0.365E-01    0.119E+00
DAV:  59    -0.131806163315E+04   -0.86878E-03   -0.30310E-03  7744   0.264E-01    0.108E+00
DAV:  60    -0.131806035167E+04    0.12815E-02   -0.21595E-03  7672   0.228E-01
 -----------------------------------------------------------------------------
|                                                                             |
|           W    W    AA    RRRRR   N    N  II  N    N   GGGG   !!!           |
|           W    W   A  A   R    R  NN   N  II  NN   N  G    G  !!!           |
|           W    W  A    A  R    R  N N  N  II  N N  N  G       !!!           |
|           W WW W  AAAAAA  RRRRR   N  N N  II  N  N N  G  GGG   !            |
|           WW  WW  A    A  R   R   N   NN  II  N   NN  G    G                |
|           W    W  A    A  R    R  N    N  II  N    N   GGGG   !!!           |
|                                                                             |
|     The electronic self-consistency was not achieved in the given           |
|     number of steps (NELM). The forces and other quantities evaluated       |
|     might not be reliable so examine the results carefully. If you find     |
|     spurious results, we suggest increasing NELM, if you were close to      |
|     convergence or switching to a different ALGO or adjusting the           |
|     density mixing parameters otherwise.                                    |
|                                                                             |
 -----------------------------------------------------------------------------

   1 F= -.14154495E+04 E0= -.14147266E+04  d E =-.141545E+04
 curvature:   0.00 expect dE= 0.000E+00 dE for cont linesearch  0.000E+00
 trial: gam= 0.00000 g(F)=  0.549E+01 g(S)=  0.000E+00 ort = 0.000E+00 (trialstep = 0.100E+01)
 search vector abs. value=  0.549E+01
 bond charge predicted
       N       E                     dE             d eps       ncg     rms          rms(c)
DAV:   1    -0.131789616238E+04    0.16547E+00   -0.12229E+03  6116   0.327E+01    0.118E+01
DAV:   2    -0.133252349360E+04   -0.14627E+02   -0.32708E+01  8064   0.200E+01    0.500E+01
DAV:   3    -0.136278351981E+04   -0.30260E+02   -0.13019E+01  6616   0.312E+01    0.111E+02
DAV:   4    -0.133065359412E+04    0.32130E+02   -0.85380E+00  6632   0.232E+01    0.652E+01
DAV:   5    -0.132616306233E+04    0.44905E+01   -0.60061E+00  6800   0.129E+01    0.443E+01
DAV:   6    -0.132598234808E+04    0.18071E+00   -0.40062E+00  6872   0.126E+01    0.450E+01
DAV:   7    -0.132724056445E+04   -0.12582E+01   -0.36650E+00  6704   0.135E+01    0.448E+01
DAV:   8    -0.132469909290E+04    0.25415E+01   -0.28888E+00  6696   0.115E+01    0.349E+01
DAV:   9    -0.132342110813E+04    0.12780E+01   -0.17667E+00  6680   0.922E+00    0.295E+01
DAV:  10    -0.132294808716E+04    0.47302E+00   -0.15890E+00  6744   0.816E+00    0.278E+01
DAV:  11    -0.132280079224E+04    0.14729E+00   -0.13356E+00  6744   0.747E+00    0.277E+01
DAV:  12    -0.132193720364E+04    0.86359E+00   -0.10341E+00  6744   0.674E+00    0.213E+01
DAV:  13    -0.132180166918E+04    0.13553E+00   -0.70380E-01  6712   0.530E+00    0.195E+01
DAV:  14    -0.132182010145E+04   -0.18432E-01   -0.83864E-01  6776   0.588E+00    0.195E+01
DAV:  15    -0.132136110820E+04    0.45899E+00   -0.67275E-01  6712   0.507E+00    0.147E+01
DAV:  16    -0.132126425171E+04    0.96856E-01   -0.37753E-01  6744   0.369E+00    0.148E+01
DAV:  17    -0.132130520397E+04   -0.40952E-01   -0.33213E-01  6696   0.306E+00    0.154E+01
DAV:  18    -0.132104844172E+04    0.25676E+00   -0.28158E-01  6704   0.281E+00    0.965E+00
DAV:  19    -0.132084458960E+04    0.20385E+00   -0.12014E-01  6680   0.215E+00    0.587E+00
DAV:  20    -0.132089256090E+04   -0.47971E-01   -0.80271E-02  7832   0.180E+00    0.681E+00
DAV:  21    -0.132086358469E+04    0.28976E-01   -0.71556E-02  7416   0.159E+00    0.579E+00
DAV:  22    -0.132082186165E+04    0.41723E-01   -0.62604E-02  7352   0.163E+00    0.549E+00
DAV:  23    -0.132079130540E+04    0.30556E-01   -0.26907E-02  6984   0.897E-01    0.386E+00
DAV:  24    -0.132079566887E+04   -0.43635E-02   -0.23182E-02  6864   0.857E-01    0.375E+00
DAV:  25    -0.132079164237E+04    0.40265E-02   -0.23777E-02  6840   0.977E-01    0.397E+00
DAV:  26    -0.132079116631E+04    0.47606E-03   -0.17430E-02  6824   0.771E-01    0.424E+00
DAV:  27    -0.132078583350E+04    0.53328E-02   -0.17186E-02  6864   0.732E-01    0.357E+00
DAV:  28    -0.132076019011E+04    0.25643E-01   -0.95846E-03  6744   0.573E-01    0.150E+00
DAV:  29    -0.132075942769E+04    0.76242E-03   -0.33638E-03  7416   0.287E-01    0.131E+00
DAV:  30    -0.132076149977E+04   -0.20721E-02   -0.41383E-03  7248   0.359E-01    0.140E+00
DAV:  31    -0.132075747181E+04    0.40280E-02   -0.34708E-03  7032   0.337E-01    0.803E-01
DAV:  32    -0.132075859440E+04   -0.11226E-02   -0.20898E-03  7760   0.243E-01    0.985E-01
DAV:  33    -0.132075876057E+04   -0.16616E-03   -0.22756E-03  7384   0.274E-01    0.117E+00
DAV:  34    -0.132075720226E+04    0.15583E-02   -0.12197E-03  7336   0.199E-01    0.933E-01
DAV:  35    -0.132075694736E+04    0.25490E-03   -0.77678E-04  7416   0.146E-01    0.790E-01
DAV:  36    -0.132075584775E+04    0.10996E-02   -0.58379E-04  7312   0.134E-01    0.262E-01
DAV:  37    -0.132075575409E+04    0.93668E-04   -0.28279E-04  7101   0.753E-02    0.164E-01
DAV:  38    -0.132075584625E+04   -0.92159E-04   -0.17972E-04  7104   0.579E-02    0.216E-01
DAV:  39    -0.132075578849E+04    0.57758E-04   -0.14102E-04  6981   0.569E-02    0.155E-01
DAV:  40    -0.132075579926E+04   -0.10772E-04   -0.50287E-05  6344   0.334E-02    0.154E-01
DAV:  41    -0.132075579160E+04    0.76608E-05   -0.43068E-05  6128   0.315E-02    0.963E-02
DAV:  42    -0.132075578345E+04    0.81535E-05   -0.32752E-05  5928   0.285E-02    0.670E-02
DAV:  43    -0.132075581528E+04   -0.31833E-04   -0.26918E-05  5320   0.277E-02    0.110E-01
DAV:  44    -0.132075580904E+04    0.62403E-05   -0.26073E-05  5352   0.270E-02    0.843E-02
DAV:  45    -0.132075580833E+04    0.70385E-06   -0.93140E-06  3336   0.142E-02
   2 F= -.14181863E+04 E0= -.14174618E+04  d E =-.273676E+01
 trial-energy change:   -2.736761  1 .order   -3.123833   -5.493852   -0.753813
 step:   1.1590(harm=  1.1590)  dis= 0.17654  next Energy= -1418.633266 (dE=-0.318E+01)
 bond charge predicted
       N       E                     dE             d eps       ncg     rms          rms(c)
DAV:   1    -0.132079889600E+04   -0.43087E-01   -0.27436E+01  6066   0.493E+00    0.128E+00
DAV:   2    -0.132112415120E+04   -0.32526E+00   -0.48339E-01  6656   0.260E+00    0.951E+00
DAV:   3    -0.132103001933E+04    0.94132E-01   -0.34434E-01  6472   0.273E+00    0.982E+00
DAV:   4    -0.132105880698E+04   -0.28788E-01   -0.12457E-01  6480   0.206E+00    0.118E+01
DAV:   5    -0.132086584958E+04    0.19296E+00   -0.87389E-02  6584   0.157E+00    0.363E+00
DAV:   6    -0.132092234252E+04   -0.56493E-01   -0.67189E-02  7032   0.150E+00    0.567E+00
DAV:   7    -0.132097850130E+04   -0.56159E-01   -0.10207E-01  6800   0.177E+00    0.742E+00
DAV:   8    -0.132088580274E+04    0.92699E-01   -0.87105E-02  6744   0.162E+00    0.442E+00
DAV:   9    -0.132085667364E+04    0.29129E-01   -0.37621E-02  6728   0.103E+00    0.300E+00
DAV:  10    -0.132086096282E+04   -0.42892E-02   -0.26671E-02  6784   0.846E-01    0.311E+00
DAV:  11    -0.132088528473E+04   -0.24322E-01   -0.34036E-02  6712   0.102E+00    0.428E+00
DAV:  12    -0.132086756161E+04    0.17723E-01   -0.34481E-02  6696   0.979E-01    0.359E+00
DAV:  13    -0.132084229517E+04    0.25266E-01   -0.15109E-02  6664   0.672E-01    0.160E+00
DAV:  14    -0.132084403347E+04   -0.17383E-02   -0.42819E-03  6776   0.366E-01    0.189E+00
DAV:  15    -0.132084511900E+04   -0.10855E-02   -0.60738E-03  6744   0.411E-01    0.180E+00
DAV:  16    -0.132084011743E+04    0.50016E-02   -0.43028E-03  6768   0.404E-01    0.998E-01
DAV:  17    -0.132083771650E+04    0.24009E-02   -0.15288E-03  6760   0.247E-01    0.455E-01
DAV:  18    -0.132083765866E+04    0.57833E-04   -0.69535E-04  6744   0.149E-01    0.425E-01
DAV:  19    -0.132083815274E+04   -0.49407E-03   -0.71921E-04  6760   0.162E-01    0.579E-01
DAV:  20    -0.132083744107E+04    0.71166E-03   -0.57333E-04  6744   0.146E-01    0.379E-01
DAV:  21    -0.132083736616E+04    0.74913E-04   -0.19049E-04  7096   0.707E-02    0.320E-01
DAV:  22    -0.132083737277E+04   -0.66119E-05   -0.15149E-04  6840   0.742E-02    0.261E-01
DAV:  23    -0.132083730498E+04    0.67796E-04   -0.12789E-04  6832   0.711E-02    0.250E-01
DAV:  24    -0.132083728273E+04    0.22252E-04   -0.59703E-05  6664   0.436E-02    0.252E-01
DAV:  25    -0.132083728339E+04   -0.66264E-06   -0.55508E-05  6752   0.421E-02    0.219E-01
DAV:  26    -0.132083720576E+04    0.77632E-04   -0.57114E-05  6584   0.460E-02    0.985E-02
DAV:  27    -0.132083718359E+04    0.22165E-04   -0.22248E-05  4712   0.272E-02    0.470E-02
DAV:  28    -0.132083719390E+04   -0.10305E-04   -0.12522E-05  3672   0.196E-02    0.701E-02
DAV:  29    -0.132083718763E+04    0.62650E-05   -0.94721E-06  3352   0.171E-02    0.546E-02
DAV:  30    -0.132083718509E+04    0.25427E-05   -0.33290E-06  3152   0.906E-03
   3 F= -.14182750E+04 E0= -.14175501E+04  d E =-.282549E+01
 curvature:  -0.58 expect dE=-0.940E-01 dE for cont linesearch -0.141E-01
 ZBRENT: increasing intervall
 opt :   1.4771  next Energy= -1418.267706 (dE=-0.282E+01)
 bond charge predicted
       N       E                     dE             d eps       ncg     rms          rms(c)
DAV:   1    -0.132065768329E+04    0.17950E+00   -0.11071E+02  6060   0.100E+01    0.248E+00
DAV:   2    -0.132203035103E+04   -0.13727E+01   -0.21756E+00  6968   0.527E+00    0.211E+01
DAV:   3    -0.132352343490E+04   -0.14931E+01   -0.11148E+00  6600   0.636E+00    0.376E+01
DAV:   4    -0.132149116965E+04    0.20323E+01   -0.12646E+00  6520   0.589E+00    0.183E+01
DAV:   5    -0.132104508930E+04    0.44608E+00   -0.41788E-01  6712   0.336E+00    0.943E+00
DAV:   6    -0.132117578899E+04   -0.13070E+00   -0.31279E-01  6920   0.327E+00    0.110E+01
DAV:   7    -0.132136546818E+04   -0.18968E+00   -0.39392E-01  6704   0.354E+00    0.146E+01
DAV:   8    -0.132103204434E+04    0.33342E+00   -0.31073E-01  6632   0.301E+00    0.855E+00
DAV:   9    -0.132091555781E+04    0.11649E+00   -0.11535E-01  6712   0.199E+00    0.562E+00
DAV:  10    -0.132092422769E+04   -0.86699E-02   -0.80402E-02  6720   0.155E+00    0.592E+00
DAV:  11    -0.132095650613E+04   -0.32278E-01   -0.98159E-02  6712   0.176E+00    0.652E+00
DAV:  12    -0.132090972902E+04    0.46777E-01   -0.92046E-02  6680   0.166E+00    0.544E+00
DAV:  13    -0.132085768447E+04    0.52045E-01   -0.45090E-02  6648   0.107E+00    0.252E+00
DAV:  14    -0.132086889228E+04   -0.11208E-01   -0.24563E-02  6680   0.898E-01    0.320E+00
DAV:  15    -0.132085690928E+04    0.11983E-01   -0.23050E-02  6680   0.899E-01    0.249E+00
DAV:  16    -0.132084773892E+04    0.91704E-02   -0.12388E-02  6664   0.686E-01    0.190E+00
DAV:  17    -0.132084930956E+04   -0.15706E-02   -0.93481E-03  6680   0.484E-01    0.207E+00
DAV:  18    -0.132085252203E+04   -0.32125E-02   -0.11332E-02  6712   0.587E-01    0.207E+00
DAV:  19    -0.132084288702E+04    0.96350E-02   -0.67636E-03  6696   0.526E-01    0.114E+00
DAV:  20    -0.132084039867E+04    0.24883E-02   -0.18537E-03  6632   0.270E-01    0.778E-01
DAV:  21    -0.132084114076E+04   -0.74209E-03   -0.13140E-03  6680   0.202E-01    0.836E-01
DAV:  22    -0.132084019837E+04    0.94239E-03   -0.13166E-03  6680   0.214E-01    0.560E-01
DAV:  23    -0.132083945422E+04    0.74416E-03   -0.67606E-04  6632   0.155E-01    0.275E-01
DAV:  24    -0.132083977708E+04   -0.32287E-03   -0.41870E-04  6912   0.119E-01    0.419E-01
DAV:  25    -0.132083958531E+04    0.19178E-03   -0.36393E-04  6840   0.114E-01    0.344E-01
DAV:  26    -0.132083937489E+04    0.21042E-03   -0.19233E-04  6712   0.804E-02    0.219E-01
DAV:  27    -0.132083936686E+04    0.80294E-05   -0.93437E-05  6912   0.493E-02    0.182E-01
DAV:  28    -0.132083935832E+04    0.85402E-05   -0.78224E-05  6736   0.512E-02    0.164E-01
DAV:  29    -0.132083932334E+04    0.34983E-04   -0.45230E-05  6368   0.382E-02    0.147E-01
DAV:  30    -0.132083931595E+04    0.73879E-05   -0.18633E-05  4360   0.188E-02    0.126E-01
DAV:  31    -0.132083929553E+04    0.20423E-04   -0.13580E-05  3728   0.204E-02    0.568E-02
DAV:  32    -0.132083928974E+04    0.57912E-05   -0.80999E-06  3360   0.166E-02    0.343E-02
DAV:  33    -0.132083929224E+04   -0.25067E-05   -0.52462E-06  3176   0.119E-02
   4 F= -.14182924E+04 E0= -.14175669E+04  d E =-.284287E+01
 curvature:   0.30 expect dE= 0.606E-01 dE for cont linesearch  0.279E-02
 ZBRENT: bracketing found
 ZBRENT: interpolating
 opt :   1.3554  next Energy= -1418.306129 (dE=-0.286E+01)
 bond charge predicted
       N       E                     dE             d eps       ncg     rms          rms(c)
DAV:   1    -0.132083850158E+04    0.78815E-03   -0.16051E+01  6060   0.384E+00    0.851E-01
DAV:   2    -0.132116778383E+04   -0.32928E+00   -0.31050E-01  6552   0.225E+00    0.116E+01
DAV:   3    -0.132128434937E+04   -0.11657E+00   -0.21469E-01  6576   0.265E+00    0.155E+01
DAV:   4    -0.132092500386E+04    0.35935E+00   -0.17667E-01  6480   0.213E+00    0.533E+00
DAV:   5    -0.132087460059E+04    0.50403E-01   -0.69159E-02  6952   0.113E+00    0.259E+00
DAV:   6    -0.132091424721E+04   -0.39647E-01   -0.41980E-02  7056   0.114E+00    0.446E+00
DAV:   7    -0.132090346386E+04    0.10783E-01   -0.45914E-02  6920   0.119E+00    0.422E+00
DAV:   8    -0.132087982017E+04    0.23644E-01   -0.28939E-02  6856   0.953E-01    0.289E+00
DAV:   9    -0.132087447857E+04    0.53416E-02   -0.16685E-02  6768   0.689E-01    0.244E+00
DAV:  10    -0.132087671487E+04   -0.22363E-02   -0.16105E-02  6784   0.622E-01    0.251E+00
DAV:  11    -0.132087605992E+04    0.65494E-03   -0.15474E-02  6776   0.672E-01    0.238E+00
DAV:  12    -0.132086928900E+04    0.67709E-02   -0.11662E-02  6784   0.577E-01    0.205E+00
DAV:  13    -0.132086517599E+04    0.41130E-02   -0.54670E-03  6728   0.370E-01    0.158E+00
DAV:  14    -0.132086684261E+04   -0.16666E-02   -0.34620E-03  6744   0.317E-01    0.173E+00
DAV:  15    -0.132086904423E+04   -0.22016E-02   -0.49183E-03  6760   0.394E-01    0.193E+00
DAV:  16    -0.132086237196E+04    0.66723E-02   -0.41835E-03  6728   0.362E-01    0.834E-01
DAV:  17    -0.132086087282E+04    0.14991E-02   -0.10278E-03  6720   0.215E-01    0.386E-01
DAV:  18    -0.132086120517E+04   -0.33234E-03   -0.68639E-04  6904   0.154E-01    0.500E-01
DAV:  19    -0.132086107124E+04    0.13393E-03   -0.56807E-04  6792   0.137E-01    0.519E-01
DAV:  20    -0.132086074757E+04    0.32367E-03   -0.26907E-04  6712   0.935E-02    0.401E-01
DAV:  21    -0.132086071180E+04    0.35770E-04   -0.12888E-04  6856   0.592E-02    0.345E-01
DAV:  22    -0.132086056214E+04    0.14966E-03   -0.12723E-04  6792   0.655E-02    0.163E-01
DAV:  23    -0.132086051754E+04    0.44605E-04   -0.62845E-05  6568   0.491E-02    0.137E-01
DAV:  24    -0.132086051395E+04    0.35916E-05   -0.32774E-05  5976   0.275E-02
   5 F= -.14183077E+04 E0= -.14175824E+04  d E =-.285816E+01
 curvature:  -1.48 expect dE=-0.252E+00 dE for cont linesearch -0.130E-03
 trial: gam= 0.03505 g(F)=  0.171E+00 g(S)=  0.000E+00 ort =-0.220E-01 (trialstep = 0.107E+01)
 search vector abs. value=  0.176E+00
 bond charge predicted
       N       E                     dE             d eps       ncg     rms          rms(c)
DAV:   1    -0.132094410469E+04   -0.83587E-01   -0.39679E+01  6060   0.648E+00    0.125E+00
DAV:   2    -0.132278862087E+04   -0.18445E+01   -0.10293E+00  6640   0.495E+00    0.260E+01
DAV:   3    -0.132149414596E+04    0.12945E+01   -0.83014E-01  6608   0.520E+00    0.168E+01
DAV:   4    -0.132132062460E+04    0.17352E+00   -0.31003E-01  6616   0.271E+00    0.134E+01
DAV:   5    -0.132104914744E+04    0.27148E+00   -0.18470E-01  6536   0.215E+00    0.501E+00
DAV:   6    -0.132105877543E+04   -0.96280E-02   -0.93162E-02  6656   0.151E+00    0.511E+00
DAV:   7    -0.132112746713E+04   -0.68692E-01   -0.10655E-01  6728   0.177E+00    0.738E+00
DAV:   8    -0.132106253260E+04    0.64935E-01   -0.95826E-02  6656   0.157E+00    0.500E+00
DAV:   9    -0.132100656669E+04    0.55966E-01   -0.35688E-02  6648   0.106E+00    0.194E+00
DAV:  10    -0.132100684280E+04   -0.27610E-03   -0.13044E-02  6768   0.610E-01    0.210E+00
DAV:  11    -0.132102828265E+04   -0.21440E-01   -0.21370E-02  6696   0.732E-01    0.382E+00
DAV:  12    -0.132100842690E+04    0.19856E-01   -0.21628E-02  6720   0.741E-01    0.208E+00
DAV:  13    -0.132100114472E+04    0.72822E-02   -0.71252E-03  6680   0.475E-01    0.137E+00
DAV:  14    -0.132100189796E+04   -0.75324E-03   -0.32867E-03  6824   0.325E-01    0.143E+00
DAV:  15    -0.132100275788E+04   -0.85992E-03   -0.43418E-03  6760   0.360E-01    0.164E+00
DAV:  16    -0.132099928486E+04    0.34730E-02   -0.38165E-03  6664   0.317E-01    0.105E+00
DAV:  17    -0.132099743701E+04    0.18478E-02   -0.14849E-03  6680   0.222E-01    0.556E-01
DAV:  18    -0.132099820001E+04   -0.76300E-03   -0.11142E-03  6792   0.199E-01    0.718E-01
DAV:  19    -0.132099721940E+04    0.98061E-03   -0.96471E-04  6736   0.191E-01    0.451E-01
DAV:  20    -0.132099676880E+04    0.45060E-03   -0.31661E-04  6664   0.101E-01    0.237E-01
DAV:  21    -0.132099692445E+04   -0.15565E-03   -0.17666E-04  6792   0.751E-02    0.327E-01
DAV:  22    -0.132099682493E+04    0.99520E-04   -0.20760E-04  6792   0.815E-02    0.244E-01
DAV:  23    -0.132099669333E+04    0.13160E-03   -0.10191E-04  6728   0.600E-02    0.137E-01
DAV:  24    -0.132099670746E+04   -0.14133E-04   -0.50016E-05  6608   0.377E-02    0.143E-01
DAV:  25    -0.132099669818E+04    0.92813E-05   -0.41707E-05  6464   0.394E-02    0.120E-01
DAV:  26    -0.132099666092E+04    0.37258E-04   -0.25233E-05  5648   0.300E-02    0.466E-02
DAV:  27    -0.132099666225E+04   -0.13269E-05   -0.89152E-06  3232   0.143E-02
   6 F= -.14184769E+04 E0= -.14177528E+04  d E =-.169250E+00
 ZBRENT: can't locate minimum, use default step
 trial-energy change:   -0.169250  1 .order   -0.168860   -0.181898   -0.155822
 step:   4.2844(harm=  7.4716)  dis= 0.11252  next Energy= -1418.823141 (dE=-0.515E+00)
 bond charge predicted
       N       E                     dE             d eps       ncg     rms          rms(c)
DAV:   1    -0.132060675427E+04    0.38991E+00   -0.35717E+02  6060   0.195E+01    0.414E+00
DAV:   2    -0.133508598999E+04   -0.14479E+02   -0.78698E+00  6656   0.152E+01    0.619E+01
DAV:   3    -0.132434630811E+04    0.10740E+02   -0.48156E+00  6744   0.157E+01    0.375E+01
DAV:   4    -0.132595018618E+04   -0.16039E+01   -0.23906E+00  6632   0.818E+00    0.490E+01
DAV:   5    -0.132195067214E+04    0.39995E+01   -0.22477E+00  6680   0.715E+00    0.183E+01
DAV:   6    -0.132164714556E+04    0.30353E+00   -0.90499E-01  6648   0.467E+00    0.128E+01
DAV:   7    -0.132250029738E+04   -0.85315E+00   -0.87665E-01  6824   0.536E+00    0.234E+01
DAV:   8    -0.132196022527E+04    0.54007E+00   -0.87055E-01  6680   0.491E+00    0.152E+01
DAV:   9    -0.132138057913E+04    0.57965E+00   -0.36987E-01  6696   0.361E+00    0.692E+00
DAV:  10    -0.132135628869E+04    0.24290E-01   -0.13723E-01  6696   0.189E+00    0.713E+00
DAV:  11    -0.132139407198E+04   -0.37783E-01   -0.14622E-01  6728   0.187E+00    0.798E+00
DAV:  12    -0.132133448274E+04    0.59589E-01   -0.10902E-01  6696   0.192E+00    0.594E+00
DAV:  13    -0.132131931173E+04    0.15171E-01   -0.73030E-02  6664   0.139E+00    0.588E+00
DAV:  14    -0.132132826098E+04   -0.89493E-02   -0.55169E-02  6664   0.121E+00    0.606E+00
DAV:  15    -0.132131069395E+04    0.17567E-01   -0.48562E-02  6696   0.124E+00    0.494E+00
DAV:  16    -0.132126953100E+04    0.41163E-01   -0.31795E-02  6664   0.113E+00    0.291E+00
DAV:  17    -0.132126916729E+04    0.36371E-03   -0.18048E-02  6800   0.806E-01    0.261E+00
DAV:  18    -0.132127118355E+04   -0.20163E-02   -0.18314E-02  6832   0.811E-01    0.283E+00
DAV:  19    -0.132125519951E+04    0.15984E-01   -0.14134E-02  6760   0.720E-01    0.184E+00
DAV:  20    -0.132125220515E+04    0.29944E-02   -0.41560E-03  6728   0.345E-01    0.137E+00
DAV:  21    -0.132125428421E+04   -0.20791E-02   -0.41171E-03  6736   0.401E-01    0.143E+00
DAV:  22    -0.132124965761E+04    0.46266E-02   -0.31110E-03  6696   0.360E-01    0.844E-01
DAV:  23    -0.132124937448E+04    0.28313E-03   -0.10004E-03  6832   0.160E-01    0.728E-01
DAV:  24    -0.132124942368E+04   -0.49198E-04   -0.88066E-04  6688   0.159E-01    0.654E-01
DAV:  25    -0.132124856220E+04    0.86148E-03   -0.63588E-04  6680   0.152E-01    0.315E-01
DAV:  26    -0.132124865640E+04   -0.94199E-04   -0.33606E-04  6888   0.111E-01    0.324E-01
DAV:  27    -0.132124877428E+04   -0.11788E-03   -0.37827E-04  6896   0.112E-01    0.389E-01
DAV:  28    -0.132124844986E+04    0.32442E-03   -0.23175E-04  6816   0.872E-02    0.238E-01
DAV:  29    -0.132124844746E+04    0.23970E-05   -0.87300E-05  7216   0.407E-02    0.204E-01
DAV:  30    -0.132124840389E+04    0.43576E-04   -0.56850E-05  6560   0.409E-02    0.117E-01
DAV:  31    -0.132124837705E+04    0.26835E-04   -0.33393E-05  6104   0.307E-02    0.805E-02
DAV:  32    -0.132124838537E+04   -0.83167E-05   -0.20978E-05  4584   0.227E-02    0.853E-02
DAV:  33    -0.132124837277E+04    0.12601E-04   -0.18093E-05  4152   0.228E-02    0.602E-02
DAV:  34    -0.132124837056E+04    0.22061E-05   -0.58619E-06  3146   0.127E-02
   7 F= -.14188302E+04 E0= -.14181094E+04  d E =-.522522E+00
 curvature:  -2.91 expect dE=-0.206E+00 dE for cont linesearch -0.926E-01
 ZBRENT: increasing intervall
 opt :  10.7109  next Energy= -1418.857117 (dE=-0.549E+00)
 bond charge predicted
       N       E                     dE             d eps       ncg     rms          rms(c)
DAV:   1    -0.131758915644E+04    0.36592E+01   -0.14408E+03  6060   0.397E+01    0.974E+00
DAV:   2    -0.136860346173E+04   -0.51014E+02   -0.32319E+01  6640   0.329E+01    0.947E+01
DAV:   3    -0.133690349732E+04    0.31700E+02   -0.25115E+01  6632   0.339E+01    0.788E+01
DAV:   4    -0.134316391762E+04   -0.62604E+01   -0.10332E+01  6640   0.189E+01    0.866E+01
DAV:   5    -0.132428437321E+04    0.18880E+02   -0.84314E+00  6616   0.161E+01    0.386E+01
DAV:   6    -0.132355694779E+04    0.72743E+00   -0.45592E+00  6696   0.115E+01    0.297E+01
DAV:   7    -0.132782177138E+04   -0.42648E+01   -0.40752E+00  6792   0.126E+01    0.503E+01
DAV:   8    -0.132426348780E+04    0.35583E+01   -0.32044E+00  6672   0.110E+01    0.286E+01
DAV:   9    -0.132159862601E+04    0.26649E+01   -0.15794E+00  6672   0.811E+00    0.133E+01
DAV:  10    -0.132147106004E+04    0.12757E+00   -0.61204E-01  6688   0.408E+00    0.136E+01
DAV:  11    -0.132154137896E+04   -0.70319E-01   -0.49128E-01  6736   0.343E+00    0.140E+01
DAV:  12    -0.132163112247E+04   -0.89744E-01   -0.46528E-01  6728   0.381E+00    0.144E+01
DAV:  13    -0.132132097946E+04    0.31014E+00   -0.33626E-01  6664   0.314E+00    0.101E+01
DAV:  14    -0.132120843821E+04    0.11254E+00   -0.16450E-01  6648   0.206E+00    0.755E+00
DAV:  15    -0.132124461437E+04   -0.36176E-01   -0.13888E-01  6696   0.216E+00    0.730E+00
DAV:  16    -0.132124067378E+04    0.39406E-02   -0.13633E-01  6696   0.230E+00    0.707E+00
DAV:  17    -0.132124277593E+04   -0.21021E-02   -0.11395E-01  6664   0.209E+00    0.742E+00
DAV:  18    -0.132119103630E+04    0.51740E-01   -0.11010E-01  6696   0.203E+00    0.584E+00
DAV:  19    -0.132113790721E+04    0.53129E-01   -0.69098E-02  6696   0.163E+00    0.416E+00
DAV:  20    -0.132114909358E+04   -0.11186E-01   -0.54118E-02  6776   0.132E+00    0.433E+00
DAV:  21    -0.132113244847E+04    0.16645E-01   -0.41564E-02  6760   0.117E+00    0.397E+00
DAV:  22    -0.132110501507E+04    0.27433E-01   -0.26090E-02  6696   0.891E-01    0.242E+00
DAV:  23    -0.132110206771E+04    0.29474E-02   -0.72162E-03  6712   0.437E-01    0.192E+00
DAV:  24    -0.132110016675E+04    0.19010E-02   -0.68824E-03  6696   0.470E-01    0.141E+00
DAV:  25    -0.132109656248E+04    0.36043E-02   -0.45384E-03  6664   0.396E-01    0.113E+00
DAV:  26    -0.132109820362E+04   -0.16411E-02   -0.30782E-03  6872   0.315E-01    0.126E+00
DAV:  27    -0.132109555455E+04    0.26491E-02   -0.28134E-03  6776   0.307E-01    0.808E-01
DAV:  28    -0.132109413533E+04    0.14192E-02   -0.13208E-03  6696   0.209E-01    0.390E-01
DAV:  29    -0.132109470477E+04   -0.56945E-03   -0.99718E-04  6904   0.170E-01    0.519E-01
DAV:  30    -0.132109411473E+04    0.59004E-03   -0.83636E-04  6776   0.155E-01    0.374E-01
DAV:  31    -0.132109395509E+04    0.15964E-03   -0.34408E-04  6744   0.917E-02    0.301E-01
DAV:  32    -0.132109404906E+04   -0.93963E-04   -0.26049E-04  6816   0.875E-02    0.292E-01
DAV:  33    -0.132109397155E+04    0.77504E-04   -0.21933E-04  6792   0.854E-02    0.309E-01
DAV:  34    -0.132109395439E+04    0.17160E-04   -0.10275E-04  6776   0.485E-02    0.289E-01
DAV:  35    -0.132109386358E+04    0.90812E-04   -0.86899E-05  6680   0.471E-02    0.176E-01
DAV:  36    -0.132109381596E+04    0.47620E-04   -0.44654E-05  6216   0.344E-02    0.111E-01
DAV:  37    -0.132109383056E+04   -0.14595E-04   -0.24752E-05  5144   0.254E-02    0.125E-01
DAV:  38    -0.132109380869E+04    0.21862E-04   -0.19072E-05  4464   0.232E-02    0.720E-02
DAV:  39    -0.132109380354E+04    0.51502E-05   -0.89184E-06  3184   0.147E-02    0.615E-02
DAV:  40    -0.132109380567E+04   -0.21232E-05   -0.54327E-06  3160   0.116E-02
   8 F= -.14188862E+04 E0= -.14181724E+04  d E =-.578566E+00
 curvature:  -0.85 expect dE=-0.216E+00 dE for cont linesearch -0.166E-01
 ZBRENT: bracketing found
 ZBRENT: interpolating
 opt :   7.8853  next Energy= -1418.969189 (dE=-0.662E+00)
 bond charge predicted
       N       E                     dE             d eps       ncg     rms          rms(c)
DAV:   1    -0.132080160823E+04    0.29220E+00   -0.27579E+02  6060   0.172E+01    0.314E+00
DAV:   2    -0.133081762660E+04   -0.10016E+02   -0.51723E+00  6648   0.109E+01    0.630E+01
DAV:   3    -0.132743039434E+04    0.33872E+01   -0.53849E+00  7520   0.116E+01    0.547E+01
DAV:   4    -0.132185317024E+04    0.55772E+01   -0.19728E+00  6576   0.768E+00    0.153E+01
DAV:   5    -0.132164327727E+04    0.20989E+00   -0.82818E-01  6760   0.463E+00    0.123E+01
DAV:   6    -0.132237226239E+04   -0.72899E+00   -0.78294E-01  6672   0.497E+00    0.209E+01
DAV:   7    -0.132176751142E+04    0.60475E+00   -0.72700E-01  6688   0.490E+00    0.137E+01
DAV:   8    -0.132148268456E+04    0.28483E+00   -0.30346E-01  6624   0.303E+00    0.994E+00
DAV:   9    -0.132139484370E+04    0.87841E-01   -0.19123E-01  6632   0.199E+00    0.736E+00
DAV:  10    -0.132139170371E+04    0.31400E-02   -0.12182E-01  6616   0.195E+00    0.692E+00
DAV:  11    -0.132134015279E+04    0.51551E-01   -0.10652E-01  6632   0.192E+00    0.552E+00
DAV:  12    -0.132130303002E+04    0.37123E-01   -0.43759E-02  6600   0.111E+00    0.405E+00
DAV:  13    -0.132130392368E+04   -0.89366E-03   -0.30838E-02  6632   0.862E-01    0.402E+00
DAV:  14    -0.132131939676E+04   -0.15473E-01   -0.32240E-02  6632   0.922E-01    0.485E+00
DAV:  15    -0.132129570078E+04    0.23696E-01   -0.27075E-02  6616   0.835E-01    0.371E+00
DAV:  16    -0.132128527698E+04    0.10424E-01   -0.11801E-02  6656   0.607E-01    0.276E+00
DAV:  17    -0.132128773370E+04   -0.24567E-02   -0.12601E-02  6728   0.659E-01    0.251E+00
DAV:  18    -0.132128976761E+04   -0.20339E-02   -0.14880E-02  6720   0.775E-01    0.282E+00
DAV:  19    -0.132127687654E+04    0.12891E-01   -0.79230E-03  6664   0.565E-01    0.205E+00
DAV:  20    -0.132127575699E+04    0.11196E-02   -0.40282E-03  6920   0.351E-01    0.177E+00
DAV:  21    -0.132127144591E+04    0.43111E-02   -0.27106E-03  6840   0.310E-01    0.949E-01
DAV:  22    -0.132126954931E+04    0.18966E-02   -0.11596E-03  6760   0.215E-01    0.386E-01
DAV:  23    -0.132127128978E+04   -0.17405E-02   -0.13610E-03  6960   0.218E-01    0.841E-01
DAV:  24    -0.132127032626E+04    0.96352E-03   -0.12481E-03  6832   0.218E-01    0.624E-01
DAV:  25    -0.132126949467E+04    0.83159E-03   -0.60774E-04  6704   0.146E-01    0.372E-01
DAV:  26    -0.132126947518E+04    0.19494E-04   -0.24997E-04  6824   0.805E-02    0.318E-01
DAV:  27    -0.132126939305E+04    0.82128E-04   -0.23869E-04  6664   0.851E-02    0.272E-01
DAV:  28    -0.132126929586E+04    0.97190E-04   -0.13244E-04  6648   0.640E-02    0.214E-01
DAV:  29    -0.132126932382E+04   -0.27959E-04   -0.82100E-05  6856   0.422E-02    0.219E-01
DAV:  30    -0.132126926588E+04    0.57942E-04   -0.68495E-05  6576   0.407E-02    0.149E-01
DAV:  31    -0.132126925177E+04    0.14108E-04   -0.31470E-05  5704   0.296E-02    0.111E-01
DAV:  32    -0.132126925840E+04   -0.66303E-05   -0.26803E-05  4912   0.308E-02    0.102E-01
DAV:  33    -0.132126923893E+04    0.19472E-04   -0.19059E-05  4440   0.252E-02    0.787E-02
DAV:  34    -0.132126923869E+04    0.23330E-06   -0.72729E-06  3152   0.129E-02
   9 F= -.14189680E+04 E0= -.14182511E+04  d E =-.660354E+00
 curvature:  -4.23 expect dE=-0.552E+00 dE for cont linesearch -0.246E-04
 trial: gam= 0.78862 g(F)=  0.130E+00 g(S)=  0.000E+00 ort = 0.101E-02 (trialstep = 0.177E+01)
 search vector abs. value=  0.241E+00
 bond charge predicted
       N       E                     dE             d eps       ncg     rms          rms(c)
DAV:   1    -0.132120416411E+04    0.65075E-01   -0.14384E+02  6060   0.122E+01    0.275E+00
DAV:   2    -0.133007698716E+04   -0.88728E+01   -0.34455E+00  6624   0.108E+01    0.528E+01
DAV:   3    -0.132240365531E+04    0.76733E+01   -0.20729E+00  6776   0.107E+01    0.202E+01
DAV:   4    -0.132367326208E+04   -0.12696E+01   -0.76574E-01  6696   0.535E+00    0.354E+01
DAV:   5    -0.132158600674E+04    0.20873E+01   -0.90204E-01  6648   0.472E+00    0.901E+00
DAV:   6    -0.132167778089E+04   -0.91774E-01   -0.33458E-01  6600   0.308E+00    0.110E+01
DAV:   7    -0.132190456432E+04   -0.22678E+00   -0.37929E-01  6632   0.359E+00    0.145E+01
DAV:   8    -0.132165557077E+04    0.24899E+00   -0.31993E-01  6616   0.307E+00    0.992E+00
DAV:   9    -0.132144624692E+04    0.20932E+00   -0.14060E-01  6616   0.208E+00    0.461E+00
DAV:  10    -0.132143723001E+04    0.90169E-02   -0.55657E-02  6736   0.119E+00    0.447E+00
DAV:  11    -0.132148759110E+04   -0.50361E-01   -0.71464E-02  6704   0.136E+00    0.652E+00
DAV:  12    -0.132143546071E+04    0.52130E-01   -0.70302E-02  6680   0.141E+00    0.401E+00
DAV:  13    -0.132141707753E+04    0.18383E-01   -0.39245E-02  6648   0.106E+00    0.342E+00
DAV:  14    -0.132141809837E+04   -0.10208E-02   -0.26442E-02  6664   0.791E-01    0.328E+00
DAV:  15    -0.132141615707E+04    0.19413E-02   -0.21015E-02  6664   0.781E-01    0.277E+00
DAV:  16    -0.132139940506E+04    0.16752E-01   -0.13637E-02  6616   0.673E-01    0.161E+00
DAV:  17    -0.132139941067E+04   -0.56091E-05   -0.51765E-03  6832   0.427E-01    0.159E+00
DAV:  18    -0.132140333634E+04   -0.39257E-02   -0.70491E-03  6832   0.506E-01    0.184E+00
DAV:  19    -0.132139449418E+04    0.88422E-02   -0.51647E-03  6840   0.454E-01    0.701E-01
DAV:  20    -0.132139377263E+04    0.72155E-03   -0.15741E-03  6672   0.231E-01    0.547E-01
DAV:  21    -0.132139437454E+04   -0.60191E-03   -0.11205E-03  6728   0.187E-01    0.675E-01
DAV:  22    -0.132139351805E+04    0.85648E-03   -0.89257E-04  6744   0.174E-01    0.430E-01
DAV:  23    -0.132139328653E+04    0.23152E-03   -0.33819E-04  6600   0.100E-01    0.319E-01
DAV:  24    -0.132139334964E+04   -0.63107E-04   -0.23659E-04  6872   0.799E-02    0.305E-01
DAV:  25    -0.132139318900E+04    0.16064E-03   -0.20898E-04  6776   0.802E-02    0.180E-01
DAV:  26    -0.132139312702E+04    0.61973E-04   -0.95467E-05  6680   0.557E-02    0.109E-01
DAV:  27    -0.132139315113E+04   -0.24111E-04   -0.58981E-05  6752   0.382E-02    0.132E-01
DAV:  28    -0.132139311773E+04    0.33406E-04   -0.45442E-05  6248   0.341E-02    0.782E-02
DAV:  29    -0.132139311223E+04    0.54999E-05   -0.16513E-05  4088   0.201E-02    0.663E-02
DAV:  30    -0.132139312899E+04   -0.16764E-04   -0.15326E-05  3952   0.227E-02    0.966E-02
DAV:  31    -0.132139311537E+04    0.13619E-04   -0.14292E-05  3960   0.222E-02    0.796E-02
DAV:  32    -0.132139311346E+04    0.19090E-05   -0.57563E-06  3106   0.131E-02
  10 F= -.14191778E+04 E0= -.14184640E+04  d E =-.209742E+00
 ZBRENT: can't locate minimum, use default step
 trial-energy change:   -0.209742  1 .order   -0.209210   -0.232698   -0.185722
 step:   7.0894(harm=  8.7793)  dis= 0.25815  next Energy= -1419.480769 (dE=-0.513E+00)
 bond charge predicted
       N       E                     dE             d eps       ncg     rms          rms(c)
DAV:   1    -0.131890519864E+04    0.24879E+01   -0.12964E+03  6060   0.370E+01    0.103E+01
DAV:   2    -0.137865982994E+04   -0.59755E+02   -0.30514E+01  6592   0.337E+01    0.103E+02
DAV:   3    -0.133214482030E+04    0.46515E+02   -0.18418E+01  6808   0.325E+01    0.620E+01
DAV:   4    -0.134673192251E+04   -0.14587E+02   -0.82234E+00  6648   0.191E+01    0.869E+01
DAV:   5    -0.132408539092E+04    0.22647E+02   -0.77139E+00  6672   0.175E+01    0.349E+01
DAV:   6    -0.132500663713E+04   -0.92125E+00   -0.42594E+00  6672   0.117E+01    0.365E+01
DAV:   7    -0.132811847540E+04   -0.31118E+01   -0.39624E+00  6664   0.127E+01    0.475E+01
DAV:   8    -0.132501877911E+04    0.30997E+01   -0.29344E+00  6624   0.104E+01    0.325E+01
DAV:   9    -0.132305031631E+04    0.19685E+01   -0.12924E+00  6576   0.720E+00    0.239E+01
DAV:  10    -0.132229627635E+04    0.75404E+00   -0.80580E-01  6592   0.491E+00    0.183E+01
DAV:  11    -0.132207454277E+04    0.22173E+00   -0.56328E-01  6648   0.433E+00    0.152E+01
DAV:  12    -0.132189289760E+04    0.18165E+00   -0.53181E-01  6664   0.381E+00    0.133E+01
DAV:  13    -0.132164700197E+04    0.24590E+00   -0.34474E-01  6632   0.292E+00    0.808E+00
DAV:  14    -0.132166791972E+04   -0.20918E-01   -0.18398E-01  6616   0.241E+00    0.818E+00
DAV:  15    -0.132166215507E+04    0.57646E-02   -0.17446E-01  6712   0.228E+00    0.857E+00
DAV:  16    -0.132165694082E+04    0.52142E-02   -0.12460E-01  6648   0.192E+00    0.817E+00
DAV:  17    -0.132173233267E+04   -0.75392E-01   -0.13596E-01  6648   0.200E+00    0.987E+00
DAV:  18    -0.132169833650E+04    0.33996E-01   -0.18123E-01  6688   0.236E+00    0.830E+00
DAV:  19    -0.132154567175E+04    0.15266E+00   -0.88852E-02  6680   0.186E+00    0.365E+00
DAV:  20    -0.132161660323E+04   -0.70931E-01   -0.74870E-02  7224   0.166E+00    0.600E+00
DAV:  21    -0.132156303494E+04    0.53568E-01   -0.67885E-02  7104   0.156E+00    0.389E+00
DAV:  22    -0.132152161923E+04    0.41416E-01   -0.36333E-02  6952   0.116E+00    0.202E+00
DAV:  23    -0.132152472400E+04   -0.31048E-02   -0.14817E-02  7128   0.645E-01    0.221E+00
DAV:  24    -0.132152157702E+04    0.31470E-02   -0.11704E-02  6856   0.641E-01    0.217E+00
DAV:  25    -0.132151603198E+04    0.55450E-02   -0.66901E-03  6776   0.483E-01    0.178E+00
DAV:  26    -0.132151485749E+04    0.11745E-02   -0.33797E-03  7096   0.296E-01    0.159E+00
DAV:  27    -0.132151320688E+04    0.16506E-02   -0.38002E-03  6880   0.344E-01    0.120E+00
DAV:  28    -0.132150979647E+04    0.34104E-02   -0.23916E-03  6840   0.280E-01    0.587E-01
DAV:  29    -0.132151052817E+04   -0.73170E-03   -0.13685E-03  7240   0.200E-01    0.750E-01
DAV:  30    -0.132151007978E+04    0.44838E-03   -0.15976E-03  7072   0.219E-01    0.576E-01
DAV:  31    -0.132150924606E+04    0.83372E-03   -0.96703E-04  7008   0.177E-01    0.297E-01
DAV:  32    -0.132150967027E+04   -0.42421E-03   -0.63048E-04  7080   0.139E-01    0.458E-01
DAV:  33    -0.132150951854E+04    0.15173E-03   -0.49292E-04  7056   0.132E-01    0.498E-01
DAV:  34    -0.132150935426E+04    0.16428E-03   -0.19368E-04  6680   0.693E-02    0.431E-01
DAV:  35    -0.132150921774E+04    0.13651E-03   -0.11333E-04  6712   0.563E-02    0.279E-01
DAV:  36    -0.132150909798E+04    0.11976E-03   -0.87871E-05  6656   0.573E-02    0.159E-01
DAV:  37    -0.132150910380E+04   -0.58161E-05   -0.56991E-05  6696   0.374E-02    0.157E-01
DAV:  38    -0.132150907969E+04    0.24109E-04   -0.44931E-05  6336   0.339E-02    0.108E-01
DAV:  39    -0.132150905943E+04    0.20258E-04   -0.29188E-05  5824   0.296E-02    0.740E-02
DAV:  40    -0.132150906062E+04   -0.11967E-05   -0.97862E-06  3312   0.156E-02
  11 F= -.14195536E+04 E0= -.14188488E+04  d E =-.585542E+00
 curvature:  -7.60 expect dE=-0.456E+00 dE for cont linesearch -0.392E-01
 ZBRENT: increasing intervall
 opt :  17.7234  next Energy= -1419.189878 (dE=-0.222E+00)
 bond charge predicted
       N       E                     dE             d eps       ncg     rms          rms(c)
DAV:   1    -0.130412691093E+04    0.17382E+02   -0.50758E+03  6060   0.761E+01    0.305E+01
DAV:   2    -0.152839884428E+04   -0.22427E+03   -0.15319E+02  6680   0.793E+01    0.168E+02
DAV:   3    -0.138291211650E+04    0.14549E+03   -0.12465E+02  6560   0.729E+01    0.119E+02
DAV:   4    -0.146771392850E+04   -0.84802E+02   -0.34594E+01  6656   0.560E+01    0.154E+02
DAV:   5    -0.136392632876E+04    0.10379E+03   -0.29624E+01  6520   0.487E+01    0.110E+02
DAV:   6    -0.134375806403E+04    0.20168E+02   -0.27984E+01  6608   0.352E+01    0.733E+01
DAV:   7    -0.136121021165E+04   -0.17452E+02   -0.25091E+01  6600   0.366E+01    0.993E+01
DAV:   8    -0.134125071363E+04    0.19959E+02   -0.15188E+01  6488   0.251E+01    0.643E+01
DAV:   9    -0.132886966856E+04    0.12381E+02   -0.94005E+00  6488   0.203E+01    0.563E+01
DAV:  10    -0.132487014990E+04    0.39995E+01   -0.50702E+00  6536   0.124E+01    0.433E+01
DAV:  11    -0.132355576532E+04    0.13144E+01   -0.32824E+00  6616   0.964E+00    0.342E+01
DAV:  12    -0.132282934756E+04    0.72642E+00   -0.25807E+00  6664   0.854E+00    0.268E+01
DAV:  13    -0.132178583626E+04    0.10435E+01   -0.16978E+00  6584   0.750E+00    0.219E+01
DAV:  14    -0.132138073770E+04    0.40510E+00   -0.10384E+00  6632   0.529E+00    0.204E+01
DAV:  15    -0.132124879912E+04    0.13194E+00   -0.73604E-01  6656   0.407E+00    0.177E+01
DAV:  16    -0.132099596233E+04    0.25284E+00   -0.54428E-01  6645   0.381E+00    0.118E+01
DAV:  17    -0.132092283011E+04    0.73132E-01   -0.34763E-01  6632   0.340E+00    0.107E+01
DAV:  18    -0.132117795524E+04   -0.25513E+00   -0.40676E-01  6680   0.388E+00    0.155E+01
DAV:  19    -0.132106431281E+04    0.11364E+00   -0.43174E-01  6738   0.384E+00    0.122E+01
DAV:  20    -0.132092218448E+04    0.14213E+00   -0.32935E-01  6696   0.353E+00    0.115E+01
DAV:  21    -0.132096217043E+04   -0.39986E-01   -0.25496E-01  6720   0.290E+00    0.106E+01
DAV:  22    -0.132096570504E+04   -0.35346E-02   -0.25639E-01  6736   0.289E+00    0.106E+01
DAV:  23    -0.132076766119E+04    0.19804E+00   -0.19191E-01  6744   0.259E+00    0.608E+00
DAV:  24    -0.132082779018E+04   -0.60129E-01   -0.11277E-01  7128   0.193E+00    0.842E+00
DAV:  25    -0.132080356825E+04    0.24222E-01   -0.85151E-02  6920   0.168E+00    0.807E+00
DAV:  26    -0.132074303532E+04    0.60533E-01   -0.54500E-02  6776   0.130E+00    0.646E+00
DAV:  27    -0.132073190447E+04    0.11131E-01   -0.39140E-02  6800   0.114E+00    0.556E+00
DAV:  28    -0.132070880567E+04    0.23099E-01   -0.49273E-02  6760   0.131E+00    0.416E+00
DAV:  29    -0.132071905373E+04   -0.10248E-01   -0.34167E-02  6784   0.114E+00    0.585E+00
DAV:  30    -0.132070427513E+04    0.14779E-01   -0.38955E-02  6904   0.108E+00    0.412E+00
DAV:  31    -0.132067228227E+04    0.31993E-01   -0.20469E-02  6864   0.842E-01    0.228E+00
DAV:  32    -0.132067003989E+04    0.22424E-02   -0.99986E-03  6744   0.573E-01    0.231E+00
DAV:  33    -0.132067317195E+04   -0.31321E-02   -0.88874E-03  6920   0.507E-01    0.245E+00
DAV:  34    -0.132066104546E+04    0.12126E-01   -0.76789E-03  6784   0.475E-01    0.130E+00
DAV:  35    -0.132066132070E+04   -0.27524E-03   -0.40995E-03  6808   0.331E-01    0.130E+00
DAV:  36    -0.132066684430E+04   -0.55236E-02   -0.57631E-03  6872   0.416E-01    0.193E+00
DAV:  37    -0.132066164122E+04    0.52031E-02   -0.37405E-03  6808   0.345E-01    0.150E+00
DAV:  38    -0.132066289547E+04   -0.12543E-02   -0.22091E-03  7576   0.249E-01    0.164E+00
DAV:  39    -0.132065995093E+04    0.29445E-02   -0.12554E-03  7088   0.193E-01    0.120E+00
DAV:  40    -0.132065901751E+04    0.93342E-03   -0.69648E-04  7152   0.139E-01    0.106E+00
DAV:  41    -0.132065840928E+04    0.60823E-03   -0.47174E-04  7456   0.109E-01    0.852E-01
DAV:  42    -0.132065749653E+04    0.91275E-03   -0.32691E-04  7304   0.888E-02    0.584E-01
DAV:  43    -0.132065749426E+04    0.22764E-05   -0.23083E-04  7344   0.658E-02    0.588E-01
DAV:  44    -0.132065739702E+04    0.97236E-04   -0.21417E-04  7344   0.767E-02    0.607E-01
DAV:  45    -0.132065724470E+04    0.15232E-03   -0.25087E-04  7320   0.884E-02    0.573E-01
DAV:  46    -0.132065706417E+04    0.18053E-03   -0.13884E-04  7576   0.507E-02    0.464E-01
DAV:  47    -0.132065669990E+04    0.36427E-03   -0.24753E-04  8040   0.841E-02    0.168E-01
DAV:  48    -0.132065669956E+04    0.33947E-06   -0.15303E-04  7392   0.502E-02    0.156E-01
DAV:  49    -0.132065675850E+04   -0.58935E-04   -0.10701E-04  7288   0.509E-02    0.207E-01
DAV:  50    -0.132065670107E+04    0.57433E-04   -0.76659E-05  6952   0.449E-02    0.163E-01
DAV:  51    -0.132065669891E+04    0.21521E-05   -0.32518E-05  5784   0.272E-02
  12 F= -.14192312E+04 E0= -.14185426E+04  d E =-.263140E+00
 curvature:  70.48 expect dE= 0.335E+02 dE for cont linesearch  0.293E+01
 ZBRENT: bracketing found
 ZBRENT: interpolating
 opt :   9.8602  next Energy= -1419.602451 (dE=-0.634E+00)
 bond charge predicted
       N       E                     dE             d eps       ncg     rms          rms(c)
DAV:   1    -0.131300541748E+04    0.76513E+01   -0.28045E+03  6084   0.564E+01    0.246E+01
DAV:   2    -0.141586423738E+04   -0.10286E+03   -0.81887E+01  6640   0.396E+01    0.156E+02
DAV:   3    -0.140366461351E+04    0.12200E+02   -0.48247E+01  6776   0.457E+01    0.135E+02
DAV:   4    -0.135886221884E+04    0.44802E+02   -0.25680E+01  6648   0.421E+01    0.849E+01
DAV:   5    -0.138619845337E+04   -0.27336E+02   -0.28943E+01  6952   0.413E+01    0.129E+02
DAV:   6    -0.134273121630E+04    0.43467E+02   -0.19083E+01  6648   0.317E+01    0.713E+01
DAV:   7    -0.132776814726E+04    0.14963E+02   -0.10946E+01  6472   0.196E+01    0.398E+01
DAV:   8    -0.132578511281E+04    0.19830E+01   -0.58832E+00  6584   0.159E+01    0.401E+01
DAV:   9    -0.132987716098E+04   -0.40920E+01   -0.55743E+00  6632   0.148E+01    0.572E+01
DAV:  10    -0.132577954908E+04    0.40976E+01   -0.45164E+00  6648   0.128E+01    0.342E+01
DAV:  11    -0.132275983786E+04    0.30197E+01   -0.22519E+00  6568   0.911E+00    0.224E+01
DAV:  12    -0.132182083013E+04    0.93901E+00   -0.11237E+00  6600   0.522E+00    0.133E+01
DAV:  13    -0.132194982094E+04   -0.12899E+00   -0.58775E-01  6696   0.412E+00    0.152E+01
DAV:  14    -0.132211785991E+04   -0.16804E+00   -0.58830E-01  6728   0.423E+00    0.167E+01
DAV:  15    -0.132160097406E+04    0.51689E+00   -0.40272E-01  6728   0.363E+00    0.927E+00
DAV:  16    -0.132152246883E+04    0.78505E-01   -0.19368E-01  6712   0.242E+00    0.724E+00
DAV:  17    -0.132179585392E+04   -0.27339E+00   -0.23118E-01  6776   0.272E+00    0.124E+01
DAV:  18    -0.132192746124E+04   -0.13161E+00   -0.31308E-01  6688   0.334E+00    0.142E+01
DAV:  19    -0.132160758463E+04    0.31988E+00   -0.27574E-01  6688   0.314E+00    0.844E+00
DAV:  20    -0.132156118794E+04    0.46397E-01   -0.11846E-01  6840   0.189E+00    0.752E+00
DAV:  21    -0.132156098426E+04    0.20368E-03   -0.96613E-02  6728   0.173E+00    0.750E+00
DAV:  22    -0.132150210118E+04    0.58883E-01   -0.79967E-02  6680   0.167E+00    0.643E+00
DAV:  23    -0.132147721874E+04    0.24882E-01   -0.40946E-02  6800   0.100E+00    0.494E+00
DAV:  24    -0.132145887696E+04    0.18342E-01   -0.34666E-02  6824   0.108E+00    0.341E+00
DAV:  25    -0.132144357020E+04    0.15307E-01   -0.29988E-02  6760   0.100E+00    0.277E+00
DAV:  26    -0.132147759779E+04   -0.34028E-01   -0.32217E-02  6992   0.103E+00    0.449E+00
DAV:  27    -0.132145126211E+04    0.26336E-01   -0.31008E-02  6848   0.998E-01    0.316E+00
DAV:  28    -0.132143980075E+04    0.11461E-01   -0.13141E-02  6712   0.691E-01    0.247E+00
DAV:  29    -0.132144122014E+04   -0.14194E-02   -0.11681E-02  6832   0.638E-01    0.221E+00
DAV:  30    -0.132144321223E+04   -0.19921E-02   -0.10204E-02  6840   0.624E-01    0.311E+00
DAV:  31    -0.132144100991E+04    0.22023E-02   -0.55331E-03  6760   0.423E-01    0.310E+00
DAV:  32    -0.132143296800E+04    0.80419E-02   -0.55679E-03  6776   0.419E-01    0.189E+00
DAV:  33    -0.132142643665E+04    0.65314E-02   -0.42254E-03  6800   0.401E-01    0.883E-01
DAV:  34    -0.132142743116E+04   -0.99451E-03   -0.21296E-03  7272   0.244E-01    0.106E+00
DAV:  35    -0.132142806639E+04   -0.63523E-03   -0.16252E-03  7256   0.210E-01    0.128E+00
DAV:  36    -0.132142687386E+04    0.11925E-02   -0.13577E-03  7104   0.195E-01    0.110E+00
DAV:  37    -0.132142631596E+04    0.55790E-03   -0.71871E-04  7088   0.133E-01    0.874E-01
DAV:  38    -0.132142509240E+04    0.12236E-02   -0.58445E-04  7024   0.131E-01    0.394E-01
DAV:  39    -0.132142492987E+04    0.16253E-03   -0.33593E-04  6968   0.956E-02    0.324E-01
DAV:  40    -0.132142519275E+04   -0.26288E-03   -0.35008E-04  7000   0.100E-01    0.377E-01
DAV:  41    -0.132142494452E+04    0.24823E-03   -0.35117E-04  7008   0.102E-01    0.280E-01
DAV:  42    -0.132142488338E+04    0.61139E-04   -0.13144E-04  7016   0.556E-02    0.224E-01
DAV:  43    -0.132142487707E+04    0.63025E-05   -0.10891E-04  7016   0.538E-02    0.168E-01
DAV:  44    -0.132142480336E+04    0.73711E-04   -0.79324E-05  6912   0.483E-02    0.970E-02
DAV:  45    -0.132142480354E+04   -0.17555E-06   -0.30292E-05  5912   0.210E-02
  13 F= -.14196060E+04 E0= -.14189055E+04  d E =-.637996E+00
 curvature:  -1.18 expect dE=-0.119E+00 dE for cont linesearch -0.780E-04
 trial: gam= 0.74922 g(F)=  0.101E+00 g(S)=  0.000E+00 ort = 0.400E-02 (trialstep = 0.338E+01)
 search vector abs. value=  0.242E+00
 bond charge predicted
       N       E                     dE             d eps       ncg     rms          rms(c)
DAV:   1    -0.132058579266E+04    0.83901E+00   -0.53492E+02  6060   0.240E+01    0.576E+00
DAV:   2    -0.134741381496E+04   -0.26828E+02   -0.13074E+01  6576   0.203E+01    0.783E+01
DAV:   3    -0.132374005523E+04    0.23674E+02   -0.62698E+00  6584   0.199E+01    0.271E+01
DAV:   4    -0.132191530093E+04    0.18248E+01   -0.24221E+00  6600   0.780E+00    0.145E+01
DAV:   5    -0.132850520273E+04   -0.65899E+01   -0.15953E+00  6808   0.895E+00    0.534E+01
DAV:   6    -0.132434429823E+04    0.41609E+01   -0.24042E+00  6664   0.952E+00    0.356E+01
DAV:   7    -0.132276958463E+04    0.15747E+01   -0.14253E+00  6664   0.664E+00    0.225E+01
DAV:   8    -0.132204961840E+04    0.71997E+00   -0.74524E-01  6608   0.476E+00    0.145E+01
DAV:   9    -0.132192454502E+04    0.12507E+00   -0.40213E-01  6632   0.354E+00    0.124E+01
DAV:  10    -0.132195184426E+04   -0.27299E-01   -0.37934E-01  6688   0.341E+00    0.125E+01
DAV:  11    -0.132182143396E+04    0.13041E+00   -0.33871E-01  6664   0.320E+00    0.110E+01
DAV:  12    -0.132157808561E+04    0.24335E+00   -0.19716E-01  6656   0.224E+00    0.423E+00
DAV:  13    -0.132160673375E+04   -0.28648E-01   -0.81315E-02  6632   0.161E+00    0.596E+00
DAV:  14    -0.132169067717E+04   -0.83943E-01   -0.11288E-01  6688   0.175E+00    0.838E+00
DAV:  15    -0.132160836197E+04    0.82315E-01   -0.11359E-01  6704   0.169E+00    0.537E+00
DAV:  16    -0.132155785025E+04    0.50512E-01   -0.39069E-02  6648   0.126E+00    0.340E+00
DAV:  17    -0.132156630962E+04   -0.84594E-02   -0.27747E-02  7088   0.970E-01    0.363E+00
DAV:  18    -0.132156822317E+04   -0.19136E-02   -0.32234E-02  6904   0.110E+00    0.359E+00
DAV:  19    -0.132153915378E+04    0.29069E-01   -0.24367E-02  6864   0.925E-01    0.193E+00
DAV:  20    -0.132154160269E+04   -0.24489E-02   -0.11353E-02  7000   0.588E-01    0.195E+00
DAV:  21    -0.132154021131E+04    0.13914E-02   -0.10309E-02  6936   0.595E-01    0.175E+00
DAV:  22    -0.132153269914E+04    0.75122E-02   -0.60667E-03  6792   0.468E-01    0.868E-01
DAV:  23    -0.132153281852E+04   -0.11938E-03   -0.25208E-03  6904   0.258E-01    0.846E-01
DAV:  24    -0.132153264483E+04    0.17368E-03   -0.20836E-03  6808   0.253E-01    0.763E-01
DAV:  25    -0.132153117345E+04    0.14714E-02   -0.11952E-03  6744   0.198E-01    0.406E-01
DAV:  26    -0.132153147762E+04   -0.30416E-03   -0.63782E-04  7176   0.144E-01    0.495E-01
DAV:  27    -0.132153175604E+04   -0.27843E-03   -0.86609E-04  7240   0.174E-01    0.550E-01
DAV:  28    -0.132153091068E+04    0.84537E-03   -0.68230E-04  7064   0.148E-01    0.270E-01
DAV:  29    -0.132153096237E+04   -0.51687E-04   -0.28239E-04  7256   0.814E-02    0.271E-01
DAV:  30    -0.132153097632E+04   -0.13951E-04   -0.25629E-04  7208   0.879E-02    0.254E-01
DAV:  31    -0.132153083940E+04    0.13692E-03   -0.15961E-04  7096   0.711E-02    0.191E-01
DAV:  32    -0.132153083617E+04    0.32249E-05   -0.56709E-05  6688   0.364E-02    0.160E-01
DAV:  33    -0.132153080330E+04    0.32870E-04   -0.42975E-05  6344   0.372E-02    0.940E-02
DAV:  34    -0.132153079396E+04    0.93442E-05   -0.19798E-05  4208   0.243E-02    0.805E-02
DAV:  35    -0.132153080059E+04   -0.66301E-05   -0.14024E-05  3736   0.202E-02    0.879E-02
DAV:  36    -0.132153078820E+04    0.12389E-04   -0.12817E-05  3552   0.195E-02    0.585E-02
DAV:  37    -0.132153078672E+04    0.14773E-05   -0.49747E-06  3176   0.113E-02
  14 F= -.14198865E+04 E0= -.14191925E+04  d E =-.280526E+00
 trial-energy change:   -0.280526  1 .order   -0.278818   -0.350754   -0.206882
 step:   7.5628(harm=  8.2310)  dis= 0.25458  next Energy= -1420.018063 (dE=-0.412E+00)
 bond charge predicted
       N       E                     dE             d eps       ncg     rms          rms(c)
DAV:   1    -0.131988536744E+04    0.16454E+01   -0.82295E+02  6060   0.299E+01    0.740E+00
DAV:   2    -0.135939127002E+04   -0.39506E+02   -0.20502E+01  6592   0.257E+01    0.886E+01
DAV:   3    -0.132526076481E+04    0.34131E+02   -0.10319E+01  6664   0.252E+01    0.356E+01
DAV:   4    -0.132870660140E+04   -0.34458E+01   -0.37949E+00  6656   0.118E+01    0.576E+01
DAV:   5    -0.132324294578E+04    0.54637E+01   -0.34445E+00  6640   0.103E+01    0.296E+01
DAV:   6    -0.132525548257E+04   -0.20125E+01   -0.24376E+00  6672   0.927E+00    0.402E+01
DAV:   7    -0.132353642188E+04    0.17191E+01   -0.24679E+00  6728   0.874E+00    0.289E+01
DAV:   8    -0.132256795981E+04    0.96846E+00   -0.13261E+00  6632   0.618E+00    0.204E+01
DAV:   9    -0.132219599629E+04    0.37196E+00   -0.59554E-01  6672   0.416E+00    0.172E+01
DAV:  10    -0.132199238154E+04    0.20361E+00   -0.51879E-01  6672   0.390E+00    0.140E+01
DAV:  11    -0.132179434809E+04    0.19803E+00   -0.39498E-01  6696   0.352E+00    0.112E+01
DAV:  12    -0.132153962430E+04    0.25472E+00   -0.23423E-01  6680   0.248E+00    0.517E+00
DAV:  13    -0.132155887678E+04   -0.19252E-01   -0.11097E-01  6712   0.183E+00    0.627E+00
DAV:  14    -0.132169467973E+04   -0.13580E+00   -0.12603E-01  6736   0.199E+00    0.996E+00
DAV:  15    -0.132162361608E+04    0.71064E-01   -0.12673E-01  6776   0.203E+00    0.759E+00
DAV:  16    -0.132155711648E+04    0.66500E-01   -0.83957E-02  6712   0.172E+00    0.593E+00
DAV:  17    -0.132156361640E+04   -0.64999E-02   -0.53955E-02  6840   0.139E+00    0.576E+00
DAV:  18    -0.132154350389E+04    0.20113E-01   -0.58151E-02  6816   0.149E+00    0.450E+00
DAV:  19    -0.132149045955E+04    0.53044E-01   -0.41666E-02  6720   0.124E+00    0.226E+00
DAV:  20    -0.132149823309E+04   -0.77735E-02   -0.19928E-02  7776   0.781E-01    0.264E+00
DAV:  21    -0.132149474586E+04    0.34872E-02   -0.19165E-02  7152   0.788E-01    0.216E+00
DAV:  22    -0.132148325803E+04    0.11488E-01   -0.11551E-02  7016   0.644E-01    0.112E+00
DAV:  23    -0.132148406355E+04   -0.80552E-03   -0.52930E-03  7168   0.365E-01    0.125E+00
DAV:  24    -0.132148434215E+04   -0.27861E-03   -0.41616E-03  6992   0.334E-01    0.136E+00
DAV:  25    -0.132148218707E+04    0.21551E-02   -0.22138E-03  6840   0.261E-01    0.109E+00
DAV:  26    -0.132148266568E+04   -0.47860E-03   -0.15890E-03  7328   0.224E-01    0.107E+00
DAV:  27    -0.132148070632E+04    0.19594E-02   -0.15545E-03  7192   0.235E-01    0.640E-01
DAV:  28    -0.132148016141E+04    0.54491E-03   -0.71146E-04  6824   0.149E-01    0.535E-01
DAV:  29    -0.132148011085E+04    0.50561E-04   -0.42516E-04  6880   0.109E-01    0.469E-01
DAV:  30    -0.132147976761E+04    0.34324E-03   -0.41534E-04  6832   0.115E-01    0.297E-01
DAV:  31    -0.132147965086E+04    0.11675E-03   -0.22366E-04  6848   0.824E-02    0.251E-01
DAV:  32    -0.132147970330E+04   -0.52443E-04   -0.14556E-04  6944   0.631E-02    0.259E-01
DAV:  33    -0.132147959437E+04    0.10893E-03   -0.12404E-04  6880   0.615E-02    0.169E-01
DAV:  34    -0.132147958714E+04    0.72257E-05   -0.45268E-05  6416   0.345E-02    0.147E-01
DAV:  35    -0.132147958816E+04   -0.10179E-05   -0.42710E-05  6232   0.374E-02
  15 F= -.14200554E+04 E0= -.14193692E+04  d E =-.449345E+00
 curvature:  -9.42 expect dE=-0.466E+00 dE for cont linesearch -0.157E-01
 ZBRENT: extrapolating
 opt :   9.6065  next Energy= -1420.075892 (dE=-0.470E+00)
 bond charge predicted
       N       E                     dE             d eps       ncg     rms          rms(c)
DAV:   1    -0.132109673181E+04    0.38286E+00   -0.19603E+02  6060   0.145E+01    0.318E+00
DAV:   2    -0.133237590653E+04   -0.11279E+02   -0.52449E+00  6712   0.121E+01    0.579E+01
DAV:   3    -0.132211104810E+04    0.10265E+02   -0.24547E+00  6648   0.120E+01    0.158E+01
DAV:   4    -0.132220012745E+04   -0.89079E-01   -0.75880E-01  6800   0.477E+00    0.223E+01
DAV:   5    -0.132173675162E+04    0.46338E+00   -0.61776E-01  6632   0.391E+00    0.135E+01
DAV:   6    -0.132227123282E+04   -0.53448E+00   -0.50495E-01  6752   0.423E+00    0.202E+01
DAV:   7    -0.132172346427E+04    0.54777E+00   -0.57781E-01  6680   0.380E+00    0.116E+01
DAV:   8    -0.132151066950E+04    0.21279E+00   -0.20963E-01  6664   0.241E+00    0.704E+00
DAV:   9    -0.132146883748E+04    0.41832E-01   -0.98828E-02  6712   0.160E+00    0.563E+00
DAV:  10    -0.132149105272E+04   -0.22215E-01   -0.92408E-02  6680   0.159E+00    0.622E+00
DAV:  11    -0.132147059074E+04    0.20462E-01   -0.10256E-01  6664   0.159E+00    0.575E+00
DAV:  12    -0.132140365767E+04    0.66933E-01   -0.57563E-02  6680   0.117E+00    0.226E+00
DAV:  13    -0.132141595819E+04   -0.12301E-01   -0.22384E-02  6728   0.848E-01    0.334E+00
DAV:  14    -0.132144096011E+04   -0.25002E-01   -0.33758E-02  6808   0.960E-01    0.453E+00
DAV:  15    -0.132142009270E+04    0.20867E-01   -0.30283E-02  6784   0.936E-01    0.318E+00
DAV:  16    -0.132140100586E+04    0.19087E-01   -0.12700E-02  6736   0.708E-01    0.194E+00
DAV:  17    -0.132140043783E+04    0.56802E-03   -0.63577E-03  7104   0.457E-01    0.179E+00
DAV:  18    -0.132140230673E+04   -0.18689E-02   -0.73534E-03  7008   0.540E-01    0.181E+00
DAV:  19    -0.132139429757E+04    0.80092E-02   -0.61405E-03  6960   0.499E-01    0.955E-01
DAV:  20    -0.132139355749E+04    0.74008E-03   -0.18397E-03  6728   0.248E-01    0.776E-01
DAV:  21    -0.132139396015E+04   -0.40265E-03   -0.16611E-03  6736   0.235E-01    0.742E-01
DAV:  22    -0.132139270335E+04    0.12568E-02   -0.11715E-03  6744   0.199E-01    0.452E-01
DAV:  23    -0.132139267273E+04    0.30628E-04   -0.39250E-04  6728   0.107E-01    0.435E-01
DAV:  24    -0.132139271722E+04   -0.44491E-04   -0.38154E-04  6744   0.108E-01    0.384E-01
DAV:  25    -0.132139234885E+04    0.36836E-03   -0.27298E-04  6728   0.958E-02    0.178E-01
DAV:  26    -0.132139237396E+04   -0.25105E-04   -0.12963E-04  7016   0.597E-02    0.179E-01
DAV:  27    -0.132139239761E+04   -0.23655E-04   -0.12016E-04  7032   0.624E-02    0.210E-01
DAV:  28    -0.132139233804E+04    0.59574E-04   -0.81871E-05  6856   0.506E-02    0.175E-01
DAV:  29    -0.132139232136E+04    0.16679E-04   -0.31996E-05  6120   0.273E-02    0.148E-01
DAV:  30    -0.132139229910E+04    0.22264E-04   -0.21701E-05  5032   0.276E-02    0.760E-02
DAV:  31    -0.132139228793E+04    0.11168E-04   -0.14097E-05  3744   0.210E-02    0.559E-02
DAV:  32    -0.132139228914E+04   -0.12112E-05   -0.66999E-06  3192   0.127E-02
  16 F= -.14200769E+04 E0= -.14193944E+04  d E =-.470853E+00
 curvature: -12.32 expect dE=-0.105E+01 dE for cont linesearch -0.342E-05
 trial: gam= 1.05949 g(F)=  0.855E-01 g(S)=  0.000E+00 ort =-0.259E-03 (trialstep = 0.314E+01)
 search vector abs. value=  0.357E+00
 bond charge predicted
       N       E                     dE             d eps       ncg     rms          rms(c)
DAV:   1    -0.132007777759E+04    0.13145E+01   -0.64889E+02  6060   0.260E+01    0.678E+00
DAV:   2    -0.135059327609E+04   -0.30515E+02   -0.18081E+01  6616   0.216E+01    0.818E+01
DAV:   3    -0.132412035878E+04    0.26473E+02   -0.82052E+00  6656   0.217E+01    0.304E+01
DAV:   4    -0.133337894615E+04   -0.92586E+01   -0.36428E+00  6616   0.126E+01    0.679E+01
DAV:   5    -0.132280826749E+04    0.10571E+02   -0.29000E+00  6672   0.116E+01    0.229E+01
DAV:   6    -0.132565470318E+04   -0.28464E+01   -0.21903E+00  6632   0.921E+00    0.393E+01
DAV:   7    -0.132305813420E+04    0.25966E+01   -0.20428E+00  6664   0.839E+00    0.245E+01
DAV:   8    -0.132212301126E+04    0.93512E+00   -0.88844E-01  6608   0.544E+00    0.162E+01
DAV:   9    -0.132180318385E+04    0.31983E+00   -0.48860E-01  6680   0.372E+00    0.123E+01
DAV:  10    -0.132186859770E+04   -0.65414E-01   -0.39484E-01  6696   0.340E+00    0.130E+01
DAV:  11    -0.132162541894E+04    0.24318E+00   -0.33268E-01  6696   0.319E+00    0.846E+00
DAV:  12    -0.132152540310E+04    0.10002E+00   -0.18049E-01  6624   0.241E+00    0.607E+00
DAV:  13    -0.132151826009E+04    0.71430E-02   -0.12371E-01  6904   0.180E+00    0.532E+00
DAV:  14    -0.132159263025E+04   -0.74370E-01   -0.11512E-01  6760   0.190E+00    0.729E+00
DAV:  15    -0.132152295118E+04    0.69679E-01   -0.11184E-01  6768   0.188E+00    0.583E+00
DAV:  16    -0.132150381905E+04    0.19132E-01   -0.73880E-02  6728   0.145E+00    0.497E+00
DAV:  17    -0.132150477109E+04   -0.95203E-03   -0.53345E-02  6680   0.128E+00    0.440E+00
DAV:  18    -0.132145676587E+04    0.48005E-01   -0.38944E-02  6720   0.121E+00    0.233E+00
DAV:  19    -0.132145305268E+04    0.37132E-02   -0.15282E-02  6728   0.740E-01    0.195E+00
DAV:  20    -0.132146367411E+04   -0.10621E-01   -0.15474E-02  6816   0.745E-01    0.265E+00
DAV:  21    -0.132145092164E+04    0.12752E-01   -0.15409E-02  6784   0.751E-01    0.159E+00
DAV:  22    -0.132144533456E+04    0.55871E-02   -0.60229E-03  6632   0.435E-01    0.957E-01
DAV:  23    -0.132144766867E+04   -0.23341E-02   -0.46071E-03  6760   0.373E-01    0.119E+00
DAV:  24    -0.132144513039E+04    0.25383E-02   -0.36106E-03  6696   0.360E-01    0.934E-01
DAV:  25    -0.132144342592E+04    0.17045E-02   -0.13725E-03  6688   0.213E-01    0.550E-01
DAV:  26    -0.132144422621E+04   -0.80029E-03   -0.11387E-03  7016   0.197E-01    0.726E-01
DAV:  27    -0.132144330644E+04    0.91977E-03   -0.96108E-04  6880   0.186E-01    0.538E-01
DAV:  28    -0.132144285477E+04    0.45167E-03   -0.40928E-04  6808   0.115E-01    0.393E-01
DAV:  29    -0.132144286063E+04   -0.58648E-05   -0.25046E-04  6800   0.766E-02    0.357E-01
DAV:  30    -0.132144262328E+04    0.23736E-03   -0.23258E-04  6736   0.792E-02    0.186E-01
DAV:  31    -0.132144257210E+04    0.51175E-04   -0.11391E-04  6696   0.538E-02    0.138E-01
DAV:  32    -0.132144262856E+04   -0.56457E-04   -0.96422E-05  6840   0.485E-02    0.184E-01
DAV:  33    -0.132144256182E+04    0.66742E-04   -0.77252E-05  6728   0.465E-02    0.111E-01
DAV:  34    -0.132144255333E+04    0.84878E-05   -0.25616E-05  5152   0.260E-02    0.875E-02
DAV:  35    -0.132144255995E+04   -0.66247E-05   -0.18484E-05  4320   0.261E-02    0.915E-02
DAV:  36    -0.132144255223E+04    0.77260E-05   -0.12127E-05  3728   0.196E-02    0.874E-02
DAV:  37    -0.132144255006E+04    0.21649E-05   -0.59614E-06  3176   0.117E-02
  17 F= -.14203127E+04 E0= -.14196367E+04  d E =-.235876E+00
 trial-energy change:   -0.235876  1 .order   -0.227900   -0.267552   -0.188247
 step:   6.4593(harm= 10.5856)  dis= 0.31426  next Energy= -1420.421841 (dE=-0.345E+00)
 bond charge predicted
       N       E                     dE             d eps       ncg     rms          rms(c)
DAV:   1    -0.131976025813E+04    0.16823E+01   -0.72692E+02  6060   0.277E+01    0.720E+00
DAV:   2    -0.135288006234E+04   -0.33120E+02   -0.19825E+01  6672   0.227E+01    0.838E+01
DAV:   3    -0.132413004657E+04    0.28750E+02   -0.95374E+00  6696   0.229E+01    0.307E+01
DAV:   4    -0.133391326376E+04   -0.97832E+01   -0.39743E+00  6640   0.133E+01    0.688E+01
DAV:   5    -0.132307521358E+04    0.10838E+02   -0.32319E+00  6776   0.123E+01    0.261E+01
DAV:   6    -0.132608524296E+04   -0.30100E+01   -0.24749E+00  6680   0.978E+00    0.415E+01
DAV:   7    -0.132303772037E+04    0.30475E+01   -0.21494E+00  6712   0.876E+00    0.249E+01
DAV:   8    -0.132211601047E+04    0.92171E+00   -0.95475E-01  6608   0.559E+00    0.172E+01
DAV:   9    -0.132180559874E+04    0.31041E+00   -0.55185E-01  6696   0.403E+00    0.138E+01
DAV:  10    -0.132183635477E+04   -0.30756E-01   -0.45719E-01  6680   0.371E+00    0.139E+01
DAV:  11    -0.132151316882E+04    0.32319E+00   -0.36603E-01  6712   0.336E+00    0.817E+00
DAV:  12    -0.132143718250E+04    0.75986E-01   -0.18198E-01  6656   0.240E+00    0.625E+00
DAV:  13    -0.132147331921E+04   -0.36137E-01   -0.14745E-01  6816   0.204E+00    0.659E+00
DAV:  14    -0.132148157885E+04   -0.82596E-02   -0.13710E-01  6728   0.205E+00    0.699E+00
DAV:  15    -0.132142596820E+04    0.55611E-01   -0.10162E-01  6720   0.180E+00    0.587E+00
DAV:  16    -0.132143376418E+04   -0.77960E-02   -0.84659E-02  6728   0.151E+00    0.600E+00
DAV:  17    -0.132141715841E+04    0.16606E-01   -0.70021E-02  6704   0.143E+00    0.468E+00
DAV:  18    -0.132135783528E+04    0.59323E-01   -0.43441E-02  6744   0.131E+00    0.219E+00
DAV:  19    -0.132136104526E+04   -0.32100E-02   -0.19696E-02  6776   0.808E-01    0.225E+00
DAV:  20    -0.132136008519E+04    0.96007E-03   -0.19814E-02  6872   0.818E-01    0.211E+00
DAV:  21    -0.132134921556E+04    0.10870E-01   -0.12276E-02  6792   0.639E-01    0.114E+00
DAV:  22    -0.132135203197E+04   -0.28164E-02   -0.56149E-03  7016   0.413E-01    0.152E+00
DAV:  23    -0.132135107101E+04    0.96096E-03   -0.54604E-03  6824   0.434E-01    0.128E+00
DAV:  24    -0.132134691200E+04    0.41590E-02   -0.34981E-03  6784   0.352E-01    0.764E-01
DAV:  25    -0.132134738726E+04   -0.47526E-03   -0.15388E-03  7208   0.223E-01    0.860E-01
DAV:  26    -0.132134747872E+04   -0.91455E-04   -0.16143E-03  7112   0.244E-01    0.843E-01
DAV:  27    -0.132134578663E+04    0.16921E-02   -0.11656E-03  7000   0.211E-01    0.464E-01
DAV:  28    -0.132134549231E+04    0.29431E-03   -0.38329E-04  6720   0.101E-01    0.354E-01
DAV:  29    -0.132134553495E+04   -0.42638E-04   -0.30806E-04  6728   0.872E-02    0.335E-01
DAV:  30    -0.132134529149E+04    0.24346E-03   -0.26053E-04  6736   0.859E-02    0.200E-01
DAV:  31    -0.132134526675E+04    0.24742E-04   -0.11284E-04  6712   0.513E-02    0.164E-01
DAV:  32    -0.132134529881E+04   -0.32059E-04   -0.10174E-04  6712   0.524E-02    0.186E-01
DAV:  33    -0.132134524825E+04    0.50555E-04   -0.68394E-05  6688   0.437E-02    0.152E-01
DAV:  34    -0.132134524151E+04    0.67391E-05   -0.23563E-05  5320   0.235E-02    0.129E-01
DAV:  35    -0.132134522022E+04    0.21294E-04   -0.19540E-05  4576   0.242E-02    0.649E-02
DAV:  36    -0.132134521410E+04    0.61207E-05   -0.12115E-05  3576   0.185E-02    0.486E-02
DAV:  37    -0.132134521643E+04   -0.23274E-05   -0.77803E-06  3248   0.135E-02
  18 F= -.14204144E+04 E0= -.14197451E+04  d E =-.337581E+00
 curvature: -15.36 expect dE=-0.214E+01 dE for cont linesearch -0.147E-03
 trial: gam= 1.40638 g(F)=  0.139E+00 g(S)=  0.000E+00 ort =-0.185E-02 (trialstep = 0.162E+01)
 search vector abs. value=  0.840E+00
 bond charge predicted
       N       E                     dE             d eps       ncg     rms          rms(c)
DAV:   1    -0.132052740543E+04    0.81781E+00   -0.36882E+02  6060   0.190E+01    0.518E+00
DAV:   2    -0.133787919485E+04   -0.17352E+02   -0.11950E+01  6704   0.153E+01    0.680E+01
DAV:   3    -0.132301673266E+04    0.14862E+02   -0.42404E+00  6768   0.156E+01    0.255E+01
DAV:   4    -0.132939831043E+04   -0.63816E+01   -0.19379E+00  6680   0.977E+00    0.598E+01
DAV:   5    -0.132267409983E+04    0.67242E+01   -0.21117E+00  6680   0.922E+00    0.208E+01
DAV:   6    -0.132404974534E+04   -0.13756E+01   -0.13721E+00  6696   0.741E+00    0.310E+01
DAV:   7    -0.132232652298E+04    0.17232E+01   -0.11941E+00  6752   0.678E+00    0.185E+01
DAV:   8    -0.132174229550E+04    0.58423E+00   -0.49373E-01  6648   0.422E+00    0.115E+01
DAV:   9    -0.132172123121E+04    0.21064E-01   -0.33015E-01  6648   0.307E+00    0.112E+01
DAV:  10    -0.132171217134E+04    0.90599E-02   -0.29911E-01  6720   0.303E+00    0.106E+01
DAV:  11    -0.132151495100E+04    0.19722E+00   -0.23268E-01  6720   0.257E+00    0.642E+00
DAV:  12    -0.132143168394E+04    0.83267E-01   -0.95852E-02  6664   0.178E+00    0.348E+00
DAV:  13    -0.132145990732E+04   -0.28223E-01   -0.66038E-02  7128   0.141E+00    0.438E+00
DAV:  14    -0.132147311726E+04   -0.13210E-01   -0.66294E-02  6896   0.143E+00    0.467E+00
DAV:  15    -0.132143614152E+04    0.36976E-01   -0.51625E-02  6832   0.137E+00    0.356E+00
DAV:  16    -0.132144779698E+04   -0.11655E-01   -0.31095E-02  7312   0.988E-01    0.389E+00
DAV:  17    -0.132146112405E+04   -0.13327E-01   -0.43096E-02  6928   0.108E+00    0.478E+00
DAV:  18    -0.132141668815E+04    0.44436E-01   -0.38745E-02  6808   0.915E-01    0.205E+00
DAV:  19    -0.132141227926E+04    0.44089E-02   -0.91569E-03  6704   0.550E-01    0.167E+00
DAV:  20    -0.132141776096E+04   -0.54817E-02   -0.83002E-03  6712   0.551E-01    0.207E+00
DAV:  21    -0.132140807865E+04    0.96823E-02   -0.76608E-03  6696   0.528E-01    0.102E+00
DAV:  22    -0.132140693728E+04    0.11414E-02   -0.28101E-03  6608   0.301E-01    0.756E-01
DAV:  23    -0.132140949852E+04   -0.25612E-02   -0.28359E-03  6648   0.325E-01    0.111E+00
DAV:  24    -0.132140741592E+04    0.20826E-02   -0.25226E-03  6616   0.312E-01    0.893E-01
DAV:  25    -0.132140665959E+04    0.75633E-03   -0.81649E-04  6600   0.154E-01    0.726E-01
DAV:  26    -0.132140658983E+04    0.69759E-04   -0.60319E-04  6560   0.150E-01    0.595E-01
DAV:  27    -0.132140584895E+04    0.74088E-03   -0.42766E-04  6608   0.142E-01    0.288E-01
DAV:  28    -0.132140575517E+04    0.93784E-04   -0.19473E-04  6600   0.794E-02    0.244E-01
DAV:  29    -0.132140582427E+04   -0.69102E-04   -0.16657E-04  6624   0.669E-02    0.275E-01
DAV:  30    -0.132140567463E+04    0.14965E-03   -0.13506E-04  6608   0.627E-02    0.150E-01
DAV:  31    -0.132140566882E+04    0.58005E-05   -0.53780E-05  6648   0.379E-02    0.128E-01
DAV:  32    -0.132140567870E+04   -0.98785E-05   -0.51856E-05  6416   0.395E-02    0.142E-01
DAV:  33    -0.132140566446E+04    0.14243E-04   -0.32689E-05  6208   0.310E-02    0.130E-01
DAV:  34    -0.132140566198E+04    0.24771E-05   -0.22087E-05  4976   0.245E-02
  19 F= -.14206039E+04 E0= -.14199390E+04  d E =-.189465E+00
 trial-energy change:   -0.189465  1 .order   -0.183989   -0.220561   -0.147417
 step:   3.3116(harm=  4.8727)  dis= 0.30729  next Energy= -1420.687582 (dE=-0.273E+00)
 bond charge predicted
       N       E                     dE             d eps       ncg     rms          rms(c)
DAV:   1    -0.132043287490E+04    0.97279E+00   -0.40564E+02  6060   0.200E+01    0.519E+00
DAV:   2    -0.133834361255E+04   -0.17911E+02   -0.12442E+01  6677   0.155E+01    0.690E+01
DAV:   3    -0.132319250410E+04    0.15151E+02   -0.45621E+00  6688   0.159E+01    0.286E+01
DAV:   4    -0.132777735011E+04   -0.45848E+01   -0.19494E+00  6584   0.920E+00    0.555E+01
DAV:   5    -0.132267887198E+04    0.50985E+01   -0.21988E+00  6648   0.880E+00    0.210E+01
DAV:   6    -0.132394627548E+04   -0.12674E+01   -0.14048E+00  6648   0.743E+00    0.305E+01
DAV:   7    -0.132211498811E+04    0.18313E+01   -0.11716E+00  6688   0.671E+00    0.167E+01
DAV:   8    -0.132167569318E+04    0.43929E+00   -0.45735E-01  6592   0.399E+00    0.112E+01
DAV:   9    -0.132174850451E+04   -0.72811E-01   -0.35223E-01  6656   0.322E+00    0.122E+01
DAV:  10    -0.132171094689E+04    0.37558E-01   -0.34205E-01  6680   0.327E+00    0.115E+01
DAV:  11    -0.132142830248E+04    0.28264E+00   -0.22188E-01  6656   0.251E+00    0.496E+00
DAV:  12    -0.132138610712E+04    0.42195E-01   -0.74508E-02  6704   0.154E+00    0.333E+00
DAV:  13    -0.132147481617E+04   -0.88709E-01   -0.80843E-02  6792   0.164E+00    0.628E+00
DAV:  14    -0.132143470292E+04    0.40113E-01   -0.99541E-02  6752   0.159E+00    0.528E+00
DAV:  15    -0.132140745064E+04    0.27252E-01   -0.50083E-02  6680   0.115E+00    0.445E+00
DAV:  16    -0.132140890359E+04   -0.14530E-02   -0.35960E-02  6656   0.103E+00    0.427E+00
DAV:  17    -0.132140206728E+04    0.68363E-02   -0.35528E-02  6672   0.106E+00    0.342E+00
DAV:  18    -0.132137136790E+04    0.30699E-01   -0.20084E-02  6688   0.916E-01    0.163E+00
DAV:  19    -0.132137071086E+04    0.65703E-03   -0.87961E-03  6736   0.577E-01    0.157E+00
DAV:  20    -0.132137530733E+04   -0.45965E-02   -0.80314E-03  6752   0.559E-01    0.198E+00
DAV:  21    -0.132136598535E+04    0.93220E-02   -0.66634E-03  6720   0.495E-01    0.103E+00
DAV:  22    -0.132136529123E+04    0.69412E-03   -0.21475E-03  6640   0.246E-01    0.833E-01
DAV:  23    -0.132136652546E+04   -0.12342E-02   -0.21942E-03  6664   0.282E-01    0.943E-01
DAV:  24    -0.132136531029E+04    0.12152E-02   -0.16136E-03  6600   0.255E-01    0.866E-01
DAV:  25    -0.132136526143E+04    0.48856E-04   -0.90019E-04  6696   0.174E-01    0.835E-01
DAV:  26    -0.132136467698E+04    0.58445E-03   -0.71856E-04  6696   0.170E-01    0.548E-01
DAV:  27    -0.132136397698E+04    0.70000E-03   -0.44984E-04  6664   0.135E-01    0.284E-01
DAV:  28    -0.132136392392E+04    0.53054E-04   -0.17574E-04  6768   0.763E-02    0.230E-01
DAV:  29    -0.132136396278E+04   -0.38859E-04   -0.16107E-04  6680   0.722E-02    0.262E-01
DAV:  30    -0.132136385575E+04    0.10703E-03   -0.10954E-04  6688   0.548E-02    0.196E-01
DAV:  31    -0.132136384824E+04    0.75088E-05   -0.55768E-05  6920   0.350E-02    0.162E-01
DAV:  32    -0.132136382432E+04    0.23921E-04   -0.50930E-05  6360   0.373E-02    0.109E-01
DAV:  33    -0.132136382364E+04    0.67893E-06   -0.25091E-05  5504   0.262E-02
  20 F= -.14206990E+04 E0= -.14200377E+04  d E =-.284550E+00
 curvature: -11.55 expect dE=-0.250E+01 dE for cont linesearch -0.413E-03
 trial: gam= 0.50524 g(F)=  0.216E+00 g(S)=  0.000E+00 ort = 0.548E-02 (trialstep = 0.196E+01)
 search vector abs. value=  0.436E+00
 bond charge predicted
       N       E                     dE             d eps       ncg     rms          rms(c)
DAV:   1    -0.132099424869E+04    0.36958E+00   -0.29066E+02  6060   0.168E+01    0.372E+00
DAV:   2    -0.132906373796E+04   -0.80695E+01   -0.72617E+00  6640   0.106E+01    0.472E+01
DAV:   3    -0.132511750475E+04    0.39462E+01   -0.31253E+00  6680   0.128E+01    0.413E+01
DAV:   4    -0.132353598967E+04    0.15815E+01   -0.18853E+00  6584   0.773E+00    0.306E+01
DAV:   5    -0.132221048884E+04    0.13255E+01   -0.12381E+00  6624   0.600E+00    0.137E+01
DAV:   6    -0.132255581683E+04   -0.34533E+00   -0.81445E-01  6616   0.532E+00    0.169E+01
DAV:   7    -0.132226576027E+04    0.29006E+00   -0.64445E-01  6616   0.479E+00    0.151E+01
DAV:   8    -0.132189115567E+04    0.37460E+00   -0.37137E-01  6584   0.353E+00    0.916E+00
DAV:   9    -0.132184248973E+04    0.48666E-01   -0.22149E-01  6608   0.242E+00    0.827E+00
DAV:  10    -0.132181880457E+04    0.23685E-01   -0.17104E-01  6632   0.221E+00    0.743E+00
DAV:  11    -0.132171193875E+04    0.10687E+00   -0.11950E-01  6696   0.187E+00    0.441E+00
DAV:  12    -0.132168476132E+04    0.27177E-01   -0.48134E-02  6640   0.116E+00    0.348E+00
DAV:  13    -0.132168776507E+04   -0.30037E-02   -0.35021E-02  6656   0.899E-01    0.347E+00
DAV:  14    -0.132171493179E+04   -0.27167E-01   -0.39902E-02  6776   0.114E+00    0.432E+00
DAV:  15    -0.132169542991E+04    0.19502E-01   -0.41337E-02  6744   0.110E+00    0.384E+00
DAV:  16    -0.132167492692E+04    0.20503E-01   -0.23573E-02  6744   0.788E-01    0.233E+00
DAV:  17    -0.132168486220E+04   -0.99353E-02   -0.17376E-02  6712   0.740E-01    0.275E+00
DAV:  18    -0.132167752042E+04    0.73418E-02   -0.14292E-02  6704   0.745E-01    0.239E+00
DAV:  19    -0.132167114462E+04    0.63758E-02   -0.75033E-03  6720   0.543E-01    0.203E+00
DAV:  20    -0.132167006368E+04    0.10809E-02   -0.44130E-03  6808   0.412E-01    0.177E+00
DAV:  21    -0.132166438357E+04    0.56801E-02   -0.37390E-03  6792   0.377E-01    0.735E-01
DAV:  22    -0.132166326086E+04    0.11227E-02   -0.14217E-03  6712   0.211E-01    0.461E-01
DAV:  23    -0.132166404769E+04   -0.78683E-03   -0.11569E-03  6728   0.185E-01    0.670E-01
[...]
DAV:  17    -0.132310051129E+04   -0.41306E-03   -0.16739E-03  6728   0.261E-01    0.822E-01
DAV:  18    -0.132310022213E+04    0.28916E-03   -0.18858E-03  6712   0.264E-01    0.842E-01
DAV:  19    -0.132309897520E+04    0.12469E-02   -0.88198E-04  6728   0.176E-01    0.590E-01
DAV:  20    -0.132309905220E+04   -0.77003E-04   -0.47331E-04  6936   0.118E-01    0.562E-01
DAV:  21    -0.132309887974E+04    0.17246E-03   -0.46427E-04  6832   0.133E-01    0.418E-01
DAV:  22    -0.132309853084E+04    0.34890E-03   -0.27262E-04  6776   0.105E-01    0.291E-01
DAV:  23    -0.132309857997E+04   -0.49136E-04   -0.13821E-04  6904   0.649E-02    0.312E-01
DAV:  24    -0.132309849295E+04    0.87018E-04   -0.12496E-04  6784   0.638E-02    0.231E-01
DAV:  25    -0.132309839622E+04    0.96736E-04   -0.60630E-05  6456   0.454E-02    0.137E-01
DAV:  26    -0.132309839402E+04    0.21935E-05   -0.28696E-05  5672   0.303E-02
  32 F= -.14220575E+04 E0= -.14213810E+04  d E =-.295271E-01
 trial-energy change:   -0.029527  1 .order   -0.029407   -0.048923   -0.009892
 step:   5.5180(harm=  5.5432)  dis= 0.01826  next Energy= -1422.058716 (dE=-0.308E-01)
 bond charge predicted
       N       E                     dE             d eps       ncg     rms          rms(c)
DAV:   1    -0.132311734634E+04   -0.18950E-01   -0.62553E+00  6060   0.263E+00    0.498E-01
DAV:   2    -0.132354389735E+04   -0.42655E+00   -0.29481E-01  6584   0.218E+00    0.130E+01
DAV:   3    -0.132321416991E+04    0.32973E+00   -0.19430E-01  6600   0.224E+00    0.710E+00
DAV:   4    -0.132314048587E+04    0.73684E-01   -0.31138E-02  6952   0.101E+00    0.280E+00
DAV:   5    -0.132312748080E+04    0.13005E-01   -0.16556E-02  6840   0.674E-01    0.134E+00
DAV:   6    -0.132315653479E+04   -0.29054E-01   -0.21011E-02  6784   0.748E-01    0.384E+00
DAV:   7    -0.132313207355E+04    0.24461E-01   -0.22689E-02  6672   0.753E-01    0.189E+00
DAV:   8    -0.132312652862E+04    0.55449E-02   -0.69979E-03  6648   0.414E-01    0.128E+00
DAV:   9    -0.132312479887E+04    0.17298E-02   -0.29654E-03  6632   0.255E-01    0.948E-01
DAV:  10    -0.132312447886E+04    0.32001E-03   -0.21086E-03  6696   0.229E-01    0.819E-01
DAV:  11    -0.132312367946E+04    0.79940E-03   -0.20293E-03  6680   0.229E-01    0.637E-01
DAV:  12    -0.132312313148E+04    0.54799E-03   -0.96269E-04  6664   0.152E-01    0.503E-01
DAV:  13    -0.132312286527E+04    0.26621E-03   -0.43543E-04  6632   0.949E-02    0.369E-01
DAV:  14    -0.132312300276E+04   -0.13749E-03   -0.28099E-04  6760   0.806E-02    0.433E-01
DAV:  15    -0.132312303939E+04   -0.36635E-04   -0.34399E-04  6696   0.942E-02    0.438E-01
DAV:  16    -0.132312268658E+04    0.35281E-03   -0.22998E-04  6680   0.868E-02    0.197E-01
DAV:  17    -0.132312263034E+04    0.56245E-04   -0.80243E-05  6632   0.554E-02    0.139E-01
DAV:  18    -0.132312269538E+04   -0.65048E-04   -0.81013E-05  6744   0.554E-02    0.192E-01
DAV:  19    -0.132312260388E+04    0.91503E-04   -0.68106E-05  6672   0.519E-02    0.110E-01
DAV:  20    -0.132312259404E+04    0.98434E-05   -0.16436E-05  3848   0.236E-02    0.945E-02
DAV:  21    -0.132312260114E+04   -0.71020E-05   -0.18112E-05  4338   0.249E-02    0.929E-02
DAV:  22    -0.132312258486E+04    0.16284E-04   -0.15535E-05  3722   0.249E-02    0.636E-02
DAV:  23    -0.132312257966E+04    0.51989E-05   -0.62968E-06  3194   0.145E-02    0.503E-02
DAV:  24    -0.132312257935E+04    0.30361E-06   -0.40814E-06  3106   0.111E-02
  33 F= -.14220587E+04 E0= -.14213813E+04  d E =-.307272E-01
 curvature:  -6.05 expect dE=-0.306E-01 dE for cont linesearch -0.175E-05
 trial: gam= 0.43602 g(F)=  0.506E-02 g(S)=  0.000E+00 ort = 0.836E-04 (trialstep = 0.464E+01)
 search vector abs. value=  0.973E-02
 bond charge predicted
       N       E                     dE             d eps       ncg     rms          rms(c)
DAV:   1    -0.132315984870E+04   -0.37269E-01   -0.45244E+01  6060   0.706E+00    0.130E+00
DAV:   2    -0.132614005654E+04   -0.29802E+01   -0.13644E+00  6608   0.581E+00    0.332E+01
DAV:   3    -0.132338781005E+04    0.27522E+01   -0.84339E-01  6624   0.577E+00    0.889E+00
DAV:   4    -0.132336480836E+04    0.23002E-01   -0.16291E-01  7216   0.194E+00    0.976E+00
DAV:   5    -0.132322227836E+04    0.14253E+00   -0.11076E-01  6872   0.172E+00    0.299E+00
DAV:   6    -0.132335290057E+04   -0.13062E+00   -0.10493E-01  6864   0.167E+00    0.807E+00
DAV:   7    -0.132327583442E+04    0.77066E-01   -0.13278E-01  6736   0.171E+00    0.557E+00
DAV:   8    -0.132321585193E+04    0.59982E-01   -0.43569E-02  6656   0.113E+00    0.268E+00
DAV:   9    -0.132321095006E+04    0.49019E-02   -0.15350E-02  6664   0.592E-01    0.248E+00
DAV:  10    -0.132320981121E+04    0.11389E-02   -0.14392E-02  6712   0.552E-01    0.225E+00
DAV:  11    -0.132320117323E+04    0.86380E-02   -0.12535E-02  6704   0.538E-01    0.122E+00
DAV:  12    -0.132319946904E+04    0.17042E-02   -0.46057E-03  6688   0.347E-01    0.111E+00
DAV:  13    -0.132319941686E+04    0.52178E-04   -0.31498E-03  6656   0.267E-01    0.107E+00
DAV:  14    -0.132320009851E+04   -0.68165E-03   -0.26448E-03  6680   0.261E-01    0.111E+00
DAV:  15    -0.132319864059E+04    0.14579E-02   -0.22228E-03  6728   0.244E-01    0.840E-01
DAV:  16    -0.132319769010E+04    0.95049E-03   -0.92136E-04  6664   0.172E-01    0.554E-01
DAV:  17    -0.132319758738E+04    0.10272E-03   -0.49416E-04  6728   0.130E-01    0.470E-01
DAV:  18    -0.132319755406E+04    0.33325E-04   -0.56852E-04  6728   0.143E-01    0.409E-01
DAV:  19    -0.132319708399E+04    0.47006E-03   -0.35468E-04  6688   0.117E-01    0.195E-01
DAV:  20    -0.132319704781E+04    0.36186E-04   -0.12254E-04  6872   0.582E-02    0.163E-01
DAV:  21    -0.132319713053E+04   -0.82723E-04   -0.10974E-04  6784   0.602E-02    0.224E-01
DAV:  22    -0.132319703847E+04    0.92059E-04   -0.91624E-05  6808   0.569E-02    0.166E-01
DAV:  23    -0.132319704310E+04   -0.46324E-05   -0.47514E-05  6664   0.382E-02
  34 F= -.14220744E+04 E0= -.14213948E+04  d E =-.156788E-01
 trial-energy change:   -0.015679  1 .order   -0.015769   -0.023642   -0.007896
 step:   7.0975(harm=  6.9690)  dis= 0.01453  next Energy= -1422.076444 (dE=-0.178E-01)
 bond charge predicted
       N       E                     dE             d eps       ncg     rms          rms(c)
DAV:   1    -0.132321975018E+04   -0.22712E-01   -0.12663E+01  6060   0.373E+00    0.676E-01
DAV:   2    -0.132401121259E+04   -0.79146E+00   -0.50388E-01  6576   0.297E+00    0.175E+01
DAV:   3    -0.132327457650E+04    0.73664E+00   -0.42387E-01  6576   0.297E+00    0.410E+00
DAV:   4    -0.132330497545E+04   -0.30399E-01   -0.31448E-02  7192   0.109E+00    0.663E+00
DAV:   5    -0.132323617704E+04    0.68798E-01   -0.38098E-02  6848   0.999E-01    0.142E+00
DAV:   6    -0.132326694833E+04   -0.30771E-01   -0.25389E-02  6808   0.856E-01    0.389E+00
DAV:   7    -0.132325234889E+04    0.14599E-01   -0.35767E-02  6656   0.869E-01    0.302E+00
DAV:   8    -0.132323576160E+04    0.16587E-01   -0.13731E-02  6648   0.598E-01    0.151E+00
DAV:   9    -0.132323340515E+04    0.23564E-02   -0.41803E-03  6552   0.322E-01    0.124E+00
DAV:  10    -0.132323418590E+04   -0.78074E-03   -0.34052E-03  6632   0.302E-01    0.126E+00
DAV:  11    -0.132323131907E+04    0.28668E-02   -0.34315E-03  6664   0.302E-01    0.667E-01
DAV:  12    -0.132323047594E+04    0.84313E-03   -0.11463E-03  6560   0.179E-01    0.508E-01
DAV:  13    -0.132323060464E+04   -0.12870E-03   -0.60843E-04  6648   0.111E-01    0.538E-01
DAV:  14    -0.132323076074E+04   -0.15610E-03   -0.63613E-04  6664   0.117E-01    0.585E-01
DAV:  15    -0.132323022418E+04    0.53656E-03   -0.46124E-04  6624   0.104E-01    0.310E-01
DAV:  16    -0.132323015917E+04    0.65012E-04   -0.15253E-04  6608   0.654E-02    0.267E-01
DAV:  17    -0.132323028407E+04   -0.12490E-03   -0.18485E-04  6600   0.687E-02    0.355E-01
DAV:  18    -0.132323016677E+04    0.11729E-03   -0.20164E-04  6648   0.782E-02    0.231E-01
DAV:  19    -0.132323003472E+04    0.13205E-03   -0.88429E-05  6600   0.597E-02    0.109E-01
DAV:  20    -0.132323002388E+04    0.10841E-04   -0.34214E-05  6208   0.341E-02    0.971E-02
DAV:  21    -0.132323004722E+04   -0.23337E-04   -0.29357E-05  5848   0.323E-02    0.132E-01
DAV:  22    -0.132323001431E+04    0.32911E-04   -0.25006E-05  5368   0.304E-02    0.852E-02
DAV:  23    -0.132323001347E+04    0.83237E-06   -0.10255E-05  3306   0.200E-02
  35 F= -.14220763E+04 E0= -.14213957E+04  d E =-.176441E-01
 curvature:  -6.63 expect dE=-0.148E-01 dE for cont linesearch -0.135E-06
 trial: gam= 0.45464 g(F)=  0.222E-02 g(S)=  0.000E+00 ort = 0.141E-04 (trialstep = 0.513E+01)
 search vector abs. value=  0.425E-02
 bond charge predicted
       N       E                     dE             d eps       ncg     rms          rms(c)
DAV:   1    -0.132325023761E+04   -0.20223E-01   -0.23701E+01  6076   0.515E+00    0.983E-01
DAV:   2    -0.132473985922E+04   -0.14896E+01   -0.76643E-01  6624   0.401E+00    0.250E+01
DAV:   3    -0.132390680999E+04    0.83305E+00   -0.54321E-01  6608   0.430E+00    0.186E+01
DAV:   4    -0.132334817086E+04    0.55864E+00   -0.22793E-01  6736   0.240E+00    0.532E+00
DAV:   5    -0.132330279521E+04    0.45376E-01   -0.68447E-02  6712   0.142E+00    0.323E+00
DAV:   6    -0.132340416793E+04   -0.10137E+00   -0.86512E-02  6688   0.160E+00    0.742E+00
DAV:   7    -0.132332989305E+04    0.74275E-01   -0.11100E-01  6616   0.154E+00    0.480E+00
DAV:   8    -0.132328362814E+04    0.46265E-01   -0.32397E-02  6632   0.987E-01    0.197E+00
DAV:   9    -0.132328274053E+04    0.88761E-03   -0.11207E-02  6584   0.513E-01    0.209E+00
DAV:  10    -0.132328429717E+04   -0.15566E-02   -0.12380E-02  6568   0.523E-01    0.210E+00
DAV:  11    -0.132327618850E+04    0.81087E-02   -0.94202E-03  6600   0.497E-01    0.114E+00
DAV:  12    -0.132327540349E+04    0.78501E-03   -0.31712E-03  6584   0.292E-01    0.113E+00
DAV:  13    -0.132327520398E+04    0.19951E-03   -0.21508E-03  6616   0.212E-01    0.106E+00
DAV:  14    -0.132327566786E+04   -0.46388E-03   -0.19243E-03  6648   0.222E-01    0.109E+00
DAV:  15    -0.132327462229E+04    0.10456E-02   -0.16300E-03  6632   0.209E-01    0.860E-01
DAV:  16    -0.132327364657E+04    0.97572E-03   -0.86369E-04  6632   0.161E-01    0.572E-01
DAV:  17    -0.132327407275E+04   -0.42618E-03   -0.67724E-04  6760   0.163E-01    0.604E-01
DAV:  18    -0.132327355468E+04    0.51806E-03   -0.65500E-04  6744   0.163E-01    0.471E-01
DAV:  19    -0.132327314919E+04    0.40550E-03   -0.28061E-04  6736   0.109E-01    0.342E-01
DAV:  20    -0.132327311533E+04    0.33853E-04   -0.12840E-04  6752   0.627E-02    0.297E-01
DAV:  21    -0.132327307120E+04    0.44137E-04   -0.13860E-04  6800   0.735E-02    0.209E-01
DAV:  22    -0.132327296060E+04    0.11060E-03   -0.10140E-04  6792   0.636E-02    0.133E-01
DAV:  23    -0.132327298414E+04   -0.23538E-04   -0.54502E-05  6800   0.402E-02    0.155E-01
DAV:  24    -0.132327296394E+04    0.20193E-04   -0.41068E-05  6440   0.374E-02    0.123E-01
DAV:  25    -0.132327293919E+04    0.24754E-04   -0.19493E-05  4202   0.259E-02    0.831E-02
DAV:  26    -0.132327293789E+04    0.12971E-05   -0.74408E-06  3282   0.158E-02
  36 F= -.14220820E+04 E0= -.14214001E+04  d E =-.566903E-02
 trial-energy change:   -0.005669  1 .order   -0.005748   -0.011449   -0.000047
 step:   5.1550(harm=  5.1541)  dis= 0.00965  next Energy= -1422.082003 (dE=-0.567E-02)
 bond charge predicted
       N       E                     dE             d eps       ncg     rms          rms(c)
DAV:   1    -0.132327309417E+04   -0.15499E-03   -0.44767E-04  6125   0.282E-02    0.523E-02
DAV:   2    -0.132327976398E+04   -0.66698E-02   -0.12197E-03  8376   0.252E-01    0.186E+00
DAV:   3    -0.132327603078E+04    0.37332E-02   -0.13307E-03  6888   0.285E-01    0.119E+00
DAV:   4    -0.132327353231E+04    0.24985E-02   -0.85195E-04  7920   0.177E-01    0.386E-01
DAV:   5    -0.132327323864E+04    0.29367E-03   -0.39142E-04  7528   0.935E-02    0.240E-01
DAV:   6    -0.132327333160E+04   -0.92955E-04   -0.26615E-04  7544   0.881E-02    0.286E-01
DAV:   7    -0.132327342751E+04   -0.95911E-04   -0.29305E-04  7192   0.896E-02    0.371E-01
DAV:   8    -0.132327317558E+04    0.25192E-03   -0.17331E-04  6800   0.716E-02    0.179E-01
DAV:   9    -0.132327311303E+04    0.62558E-04   -0.43856E-05  6096   0.382E-02    0.109E-01
DAV:  10    -0.132327310060E+04    0.12424E-04   -0.18595E-05  3984   0.209E-02    0.817E-02
DAV:  11    -0.132327309693E+04    0.36701E-05   -0.12322E-05  3594   0.190E-02
  37 F= -.14220820E+04 E0= -.14214000E+04  d E =-.566658E-02
 curvature:  -4.90 expect dE=-0.423E-02 dE for cont linesearch -0.412E-06
 trial: gam= 0.39260 g(F)=  0.864E-03 g(S)=  0.000E+00 ort =-0.189E-04 (trialstep = 0.514E+01)
 search vector abs. value=  0.150E-02
 bond charge predicted
       N       E                     dE             d eps       ncg     rms          rms(c)
DAV:   1    -0.132328283812E+04   -0.97375E-02   -0.84311E+00  6068   0.307E+00    0.574E-01
DAV:   2    -0.132362763423E+04   -0.34480E+00   -0.25341E-01  6680   0.198E+00    0.121E+01
DAV:   3    -0.132334084326E+04    0.28679E+00   -0.16297E-01  6608   0.206E+00    0.502E+00
DAV:   4    -0.132332739937E+04    0.13444E-01   -0.21521E-02  6592   0.961E-01    0.441E+00
DAV:   5    -0.132329882716E+04    0.28572E-01   -0.22269E-02  6616   0.820E-01    0.168E+00
DAV:   6    -0.132331905064E+04   -0.20223E-01   -0.23025E-02  6736   0.774E-01    0.332E+00
DAV:   7    -0.132330803520E+04    0.11015E-01   -0.26857E-02  6736   0.806E-01    0.243E+00
DAV:   8    -0.132329932886E+04    0.87063E-02   -0.12032E-02  6680   0.607E-01    0.181E+00
DAV:   9    -0.132329523635E+04    0.40925E-02   -0.67247E-03  6648   0.415E-01    0.124E+00
DAV:  10    -0.132329409983E+04    0.11365E-02   -0.35847E-03  6720   0.321E-01    0.933E-01
DAV:  11    -0.132329477659E+04   -0.67676E-03   -0.29046E-03  6728   0.302E-01    0.107E+00
DAV:  12    -0.132329271022E+04    0.20664E-02   -0.24751E-03  6672   0.245E-01    0.702E-01
DAV:  13    -0.132329194569E+04    0.76453E-03   -0.95394E-04  6664   0.151E-01    0.430E-01
DAV:  14    -0.132329233347E+04   -0.38778E-03   -0.57559E-04  6680   0.133E-01    0.546E-01
DAV:  15    -0.132329227909E+04    0.54382E-04   -0.63797E-04  6712   0.141E-01    0.572E-01
DAV:  16    -0.132329188915E+04    0.38994E-03   -0.46066E-04  6704   0.111E-01    0.417E-01
DAV:  17    -0.132329169475E+04    0.19439E-03   -0.20763E-04  6616   0.802E-02    0.286E-01
DAV:  18    -0.132329177523E+04   -0.80479E-04   -0.20049E-04  6856   0.852E-02    0.304E-01
DAV:  19    -0.132329158208E+04    0.19315E-03   -0.17687E-04  6848   0.801E-02    0.216E-01
DAV:  20    -0.132329155354E+04    0.28539E-04   -0.49280E-05  6744   0.383E-02    0.186E-01
DAV:  21    -0.132329154497E+04    0.85731E-05   -0.33948E-05  6240   0.325E-02    0.161E-01
DAV:  22    -0.132329150180E+04    0.43173E-04   -0.27234E-05  5800   0.303E-02    0.825E-02
DAV:  23    -0.132329148997E+04    0.11831E-04   -0.11474E-05  3450   0.201E-02    0.523E-02
DAV:  24    -0.132329149328E+04   -0.33155E-05   -0.76528E-06  3234   0.167E-02
  38 F= -.14220835E+04 E0= -.14214011E+04  d E =-.148894E-02
 trial-energy change:   -0.001489  1 .order   -0.001488   -0.004402    0.001427
 step:   3.8794(harm=  3.8794)  dis= 0.00321  next Energy= -1422.083662 (dE=-0.166E-02)
 bond charge predicted
       N       E                     dE             d eps       ncg     rms          rms(c)
DAV:   1    -0.132328699739E+04    0.44926E-02   -0.50559E-01  6068   0.751E-01    0.153E-01
DAV:   2    -0.132331422389E+04   -0.27226E-01   -0.15415E-02  6696   0.560E-01    0.339E+00
DAV:   3    -0.132329392717E+04    0.20297E-01   -0.14080E-02  6624   0.595E-01    0.184E+00
DAV:   4    -0.132328968973E+04    0.42374E-02   -0.18536E-03  6568   0.289E-01    0.105E+00
DAV:   5    -0.132328799609E+04    0.16936E-02   -0.15202E-03  6600   0.206E-01    0.446E-01
DAV:   6    -0.132328968153E+04   -0.16854E-02   -0.18540E-03  6792   0.208E-01    0.956E-01
DAV:   7    -0.132328883708E+04    0.84445E-03   -0.18383E-03  6800   0.221E-01    0.700E-01
DAV:   8    -0.132328814129E+04    0.69578E-03   -0.92650E-04  6760   0.164E-01    0.507E-01
DAV:   9    -0.132328776168E+04    0.37961E-03   -0.45764E-04  6640   0.115E-01    0.309E-01
DAV:  10    -0.132328766761E+04    0.94068E-04   -0.21713E-04  6736   0.829E-02    0.228E-01
DAV:  11    -0.132328782190E+04   -0.15428E-03   -0.24978E-04  6736   0.790E-02    0.353E-01
DAV:  12    -0.132328760357E+04    0.21833E-03   -0.21608E-04  6688   0.697E-02    0.176E-01
DAV:  13    -0.132328755572E+04    0.47844E-04   -0.53526E-05  6496   0.402E-02    0.130E-01
DAV:  14    -0.132328756204E+04   -0.63214E-05   -0.31100E-05  5024   0.279E-02    0.144E-01
DAV:  15    -0.132328758079E+04   -0.18750E-04   -0.45845E-05  6256   0.350E-02    0.151E-01
DAV:  16    -0.132328754263E+04    0.38162E-04   -0.30609E-05  5600   0.331E-02    0.976E-02
DAV:  17    -0.132328752998E+04    0.12654E-04   -0.13240E-05  3546   0.220E-02    0.696E-02
DAV:  18    -0.132328753920E+04   -0.92266E-05   -0.12374E-05  3442   0.224E-02    0.839E-02
DAV:  19    -0.132328752214E+04    0.17067E-04   -0.10065E-05  3472   0.201E-02    0.376E-02
DAV:  20    -0.132328752062E+04    0.15185E-05   -0.27828E-06  3183   0.881E-03
  39 F= -.14220836E+04 E0= -.14214013E+04  d E =-.164796E-02
 curvature:  -3.40 expect dE=-0.131E-02 dE for cont linesearch -0.495E-06
 trial: gam= 0.42956 g(F)=  0.385E-03 g(S)=  0.000E+00 ort = 0.148E-04 (trialstep = 0.489E+01)
 search vector abs. value=  0.675E-03
 bond charge predicted
       N       E                     dE             d eps       ncg     rms          rms(c)
DAV:   1    -0.132329165903E+04   -0.41369E-02   -0.34442E+00  6068   0.196E+00    0.319E-01
DAV:   2    -0.132342150464E+04   -0.12985E+00   -0.89611E-02  6608   0.119E+00    0.773E+00
DAV:   3    -0.132334986730E+04    0.71637E-01   -0.59825E-02  6600   0.133E+00    0.559E+00
DAV:   4    -0.132330181457E+04    0.48053E-01   -0.16009E-02  6560   0.760E-01    0.165E+00
DAV:   5    -0.132329842008E+04    0.33945E-02   -0.84350E-03  6568   0.464E-01    0.115E+00
DAV:   6    -0.132331164243E+04   -0.13222E-01   -0.12832E-02  6664   0.533E-01    0.269E+00
DAV:   7    -0.132330078587E+04    0.10857E-01   -0.12235E-02  6680   0.540E-01    0.147E+00
DAV:   8    -0.132329681342E+04    0.39724E-02   -0.35248E-03  6616   0.318E-01    0.908E-01
DAV:   9    -0.132329595250E+04    0.86093E-03   -0.15728E-03  6632   0.193E-01    0.642E-01
DAV:  10    -0.132329630076E+04   -0.34826E-03   -0.11662E-03  6664   0.191E-01    0.659E-01
DAV:  11    -0.132329558285E+04    0.71790E-03   -0.90602E-04  6672   0.182E-01    0.489E-01
DAV:  12    -0.132329532450E+04    0.25835E-03   -0.39252E-04  6680   0.101E-01    0.423E-01
DAV:  13    -0.132329524562E+04    0.78887E-04   -0.21109E-04  6712   0.626E-02    0.376E-01
DAV:  14    -0.132329534014E+04   -0.94527E-04   -0.15614E-04  6776   0.650E-02    0.398E-01
DAV:  15    -0.132329523509E+04    0.10505E-03   -0.18596E-04  6792   0.734E-02    0.323E-01
DAV:  16    -0.132329507462E+04    0.16047E-03   -0.10708E-04  6768   0.615E-02    0.183E-01
DAV:  17    -0.132329505427E+04    0.20348E-04   -0.51172E-05  6608   0.419E-02    0.153E-01
DAV:  18    -0.132329506309E+04   -0.88164E-05   -0.56848E-05  6648   0.442E-02    0.157E-01
DAV:  19    -0.132329501839E+04    0.44692E-04   -0.38169E-05  6456   0.361E-02    0.116E-01
DAV:  20    -0.132329501237E+04    0.60198E-05   -0.12984E-05  3498   0.198E-02    0.997E-02
DAV:  21    -0.132329501003E+04    0.23437E-05   -0.11492E-05  3418   0.219E-02
  40 F= -.14220846E+04 E0= -.14214020E+04  d E =-.969546E-03
 trial-energy change:   -0.000970  1 .order   -0.000988   -0.001913   -0.000064
 step:   5.0554(harm=  5.0554)  dis= 0.00223  next Energy= -1422.084637 (dE=-0.990E-03)
