NiAl                                    
            1
     0.000000  -15.146222    0.000000
     0.000000   -7.573111  -13.117013
    29.000000    0.000000    0.000000
   Ni   O 
   252     1
Direct configuration=     1
   0.44444444  0.44444444  0.10434507
   0.44444444  0.77777778  0.10434507
   0.44444444  0.11111111  0.10434507
   0.77777778  0.44444444  0.10434507
   0.77777778  0.77777778  0.10434507
   0.77777778  0.11111111  0.10434507
   0.11111111  0.44444444  0.10434507
   0.11111111  0.77777778  0.10434507
   0.11111111  0.11111111  0.10434507
   0.55555556  0.55555556  0.17318538
   0.55555556  0.88888889  0.17318538
   0.55555556  0.22222222  0.17318538
   0.88888889  0.55555556  0.17318538
   0.88888889  0.88888889  0.17318538
   0.88888889  0.22222222  0.17318538
   0.22222222  0.55555556  0.17318538
   0.22222222  0.88888889  0.17318538
   0.22222222  0.22222222  0.17318538
   0.66666667  0.66666667  0.24249888
   0.66666667  0.00000000  0.24249888
   0.66666667  0.33333333  0.24249888
   0.00000000  0.66666667  0.24249888
   0.00000000  0.00000000  0.24249888
   0.00000000  0.33333333  0.24249888
   0.33333333  0.66666667  0.24249888
   0.33333333  0.00000000  0.24249888
   0.33333333  0.33333333  0.24249888
   0.77777778  0.77777778  0.31173066
   0.77777778  0.11111111  0.31173066
   0.77777778  0.44444444  0.31173066
   0.11111111  0.77777778  0.31173066
   0.11111111  0.11111111  0.31173066
   0.11111111  0.44444444  0.31173066
   0.44444444  0.77777778  0.31173066
   0.44444444  0.11111111  0.31173066
   0.44444444  0.44444444  0.31173066
   0.88888889  0.88888889  0.38096243
   0.88888889  0.22222222  0.38096243
   0.88888889  0.55555556  0.38096243
   0.22222222  0.88888889  0.38096243
   0.22222222  0.22222222  0.38096243
   0.22222222  0.55555556  0.38096243
   0.55555556  0.88888889  0.38096243
   0.55555556  0.22222222  0.38096243
   0.55555556  0.55555556  0.38096243
   0.00000000  0.00000000  0.45027593
   0.00000000  0.33333333  0.45027593
   0.00000000  0.66666667  0.45027593
   0.33333333  0.00000000  0.45027593
   0.33333333  0.33333333  0.45027593
   0.33333333  0.66666667  0.45027593
   0.66666667  0.00000000  0.45027593
   0.66666667  0.33333333  0.45027593
   0.66666667  0.66666667  0.45027593
   0.11111111  0.11111111  0.51911624
   0.11111111  0.44444444  0.51911624
   0.11111111  0.77777778  0.51911624
   0.44444444  0.11111111  0.51911624
   0.44444444  0.44444444  0.51911624
   0.44444444  0.77777778  0.51911624
   0.77777778  0.11111111  0.51911624
   0.77777778  0.44444444  0.51911624
   0.77777778  0.77777778  0.51911624
   0.27777778  0.27777778  0.10434507
   0.27777778  0.61111111  0.10434507
   0.27777778  0.94444444  0.10434507
   0.61111111  0.27777778  0.10434507
   0.61111111  0.61111111  0.10434507
   0.61111111  0.94444444  0.10434507
   0.94444444  0.27777778  0.10434507
   0.94444444  0.61111111  0.10434507
   0.94444444  0.94444444  0.10434507
   0.38888889  0.38888889  0.17318538
   0.38888889  0.72222222  0.17318538
   0.38888889  0.05555556  0.17318538
   0.72222222  0.38888889  0.17318538
   0.72222222  0.72222222  0.17318538
   0.72222222  0.05555556  0.17318538
   0.05555556  0.38888889  0.17318538
   0.05555556  0.72222222  0.17318538
   0.05555556  0.05555556  0.17318538
   0.50000000  0.50000000  0.24249888
   0.50000000  0.83333333  0.24249888
   0.50000000  0.16666667  0.24249888
   0.83333333  0.50000000  0.24249888
   0.83333333  0.83333333  0.24249888
   0.83333333  0.16666667  0.24249888
   0.16666667  0.50000000  0.24249888
   0.16666667  0.83333333  0.24249888
   0.16666667  0.16666667  0.24249888
   0.61111111  0.61111111  0.31173066
   0.61111111  0.94444444  0.31173066
   0.61111111  0.27777778  0.31173066
   0.94444444  0.61111111  0.31173066
   0.94444444  0.94444444  0.31173066
   0.94444444  0.27777778  0.31173066
   0.27777778  0.61111111  0.31173066
   0.27777778  0.94444444  0.31173066
   0.27777778  0.27777778  0.31173066
   0.72222222  0.72222222  0.38096243
   0.72222222  0.05555556  0.38096243
   0.72222222  0.38888889  0.38096243
   0.05555556  0.72222222  0.38096243
   0.05555556  0.05555556  0.38096243
   0.05555556  0.38888889  0.38096243
   0.38888889  0.72222222  0.38096243
   0.38888889  0.05555556  0.38096243
   0.38888889  0.38888889  0.38096243
   0.83333333  0.83333333  0.45027593
   0.83333333  0.16666667  0.45027593
   0.83333333  0.50000000  0.45027593
   0.16666667  0.83333333  0.45027593
   0.16666667  0.16666667  0.45027593
   0.16666667  0.50000000  0.45027593
   0.50000000  0.83333333  0.45027593
   0.50000000  0.16666667  0.45027593
   0.50000000  0.50000000  0.45027593
   0.94444444  0.94444444  0.51911624
   0.94444444  0.27777778  0.51911624
   0.94444444  0.61111111  0.51911624
   0.27777778  0.94444444  0.51911624
   0.27777778  0.27777778  0.51911624
   0.27777778  0.61111111  0.51911624
   0.61111111  0.94444444  0.51911624
   0.61111111  0.27777778  0.51911624
   0.61111111  0.61111111  0.51911624
   0.27777778  0.44444444  0.10434507
   0.27777778  0.77777778  0.10434507
   0.27777778  0.11111111  0.10434507
   0.61111111  0.44444444  0.10434507
   0.61111111  0.77777778  0.10434507
   0.61111111  0.11111111  0.10434507
   0.94444444  0.44444444  0.10434507
   0.94444444  0.77777778  0.10434507
   0.94444444  0.11111111  0.10434507
   0.38888889  0.55555556  0.17318538
   0.38888889  0.88888889  0.17318538
   0.38888889  0.22222222  0.17318538
   0.72222222  0.55555556  0.17318538
   0.72222222  0.88888889  0.17318538
   0.72222222  0.22222222  0.17318538
   0.05555556  0.55555556  0.17318538
   0.05555556  0.88888889  0.17318538
   0.05555556  0.22222222  0.17318538
   0.50000000  0.66666667  0.24249888
   0.50000000  0.00000000  0.24249888
   0.50000000  0.33333333  0.24249888
   0.83333333  0.66666667  0.24249888
   0.83333333  0.00000000  0.24249888
   0.83333333  0.33333333  0.24249888
   0.16666667  0.66666667  0.24249888
   0.16666667  0.00000000  0.24249888
   0.16666667  0.33333333  0.24249888
   0.61111111  0.77777778  0.31173066
   0.61111111  0.11111111  0.31173066
   0.61111111  0.44444444  0.31173066
   0.94444444  0.77777778  0.31173066
   0.94444444  0.11111111  0.31173066
   0.94444444  0.44444444  0.31173066
   0.27777778  0.77777778  0.31173066
   0.27777778  0.11111111  0.31173066
   0.27777778  0.44444444  0.31173066
   0.72222222  0.88888889  0.38096243
   0.72222222  0.22222222  0.38096243
   0.72222222  0.55555556  0.38096243
   0.05555556  0.88888889  0.38096243
   0.05555556  0.22222222  0.38096243
   0.05555556  0.55555556  0.38096243
   0.38888889  0.88888889  0.38096243
   0.38888889  0.22222222  0.38096243
   0.38888889  0.55555556  0.38096243
   0.83333333  0.00000000  0.45027593
   0.83333333  0.33333333  0.45027593
   0.83333333  0.66666667  0.45027593
   0.16666667  0.00000000  0.45027593
   0.16666667  0.33333333  0.45027593
   0.16666667  0.66666667  0.45027593
   0.50000000  0.00000000  0.45027593
   0.50000000  0.33333333  0.45027593
   0.50000000  0.66666667  0.45027593
   0.94444444  0.11111111  0.51911624
   0.94444444  0.44444444  0.51911624
   0.94444444  0.77777778  0.51911624
   0.27777778  0.11111111  0.51911624
   0.27777778  0.44444444  0.51911624
   0.27777778  0.77777778  0.51911624
   0.61111111  0.11111111  0.51911624
   0.61111111  0.44444444  0.51911624
   0.61111111  0.77777778  0.51911624
   0.44444444  0.27777778  0.10434507
   0.44444444  0.61111111  0.10434507
   0.44444444  0.94444444  0.10434507
   0.77777778  0.27777778  0.10434507
   0.77777778  0.61111111  0.10434507
   0.77777778  0.94444444  0.10434507
   0.11111111  0.27777778  0.10434507
   0.11111111  0.61111111  0.10434507
   0.11111111  0.94444444  0.10434507
   0.55555556  0.38888889  0.17318538
   0.55555556  0.72222222  0.17318538
   0.55555556  0.05555556  0.17318538
   0.88888889  0.38888889  0.17318538
   0.88888889  0.72222222  0.17318538
   0.88888889  0.05555556  0.17318538
   0.22222222  0.38888889  0.17318538
   0.22222222  0.72222222  0.17318538
   0.22222222  0.05555556  0.17318538
   0.66666667  0.50000000  0.24249888
   0.66666667  0.83333333  0.24249888
   0.66666667  0.16666667  0.24249888
   0.00000000  0.50000000  0.24249888
   0.00000000  0.83333333  0.24249888
   0.00000000  0.16666667  0.24249888
   0.33333333  0.50000000  0.24249888
   0.33333333  0.83333333  0.24249888
   0.33333333  0.16666667  0.24249888
   0.77777778  0.61111111  0.31173066
   0.77777778  0.94444444  0.31173066
   0.77777778  0.27777778  0.31173066
   0.11111111  0.61111111  0.31173066
   0.11111111  0.94444444  0.31173066
   0.11111111  0.27777778  0.31173066
   0.44444444  0.61111111  0.31173066
   0.44444444  0.94444444  0.31173066
   0.44444444  0.27777778  0.31173066
   0.88888889  0.72222222  0.38096243
   0.88888889  0.05555556  0.38096243
   0.88888889  0.38888889  0.38096243
   0.22222222  0.72222222  0.38096243
   0.22222222  0.05555556  0.38096243
   0.22222222  0.38888889  0.38096243
   0.55555556  0.72222222  0.38096243
   0.55555556  0.05555556  0.38096243
   0.55555556  0.38888889  0.38096243
   0.00000000  0.83333333  0.45027593
   0.00000000  0.16666667  0.45027593
   0.00000000  0.50000000  0.45027593
   0.33333333  0.83333333  0.45027593
   0.33333333  0.16666667  0.45027593
   0.33333333  0.50000000  0.45027593
   0.66666667  0.83333333  0.45027593
   0.66666667  0.16666667  0.45027593
   0.66666667  0.50000000  0.45027593
   0.11111111  0.94444444  0.51911624
   0.11111111  0.27777778  0.51911624
   0.11111111  0.61111111  0.51911624
   0.44444444  0.94444444  0.51911624
   0.44444444  0.27777778  0.51911624
   0.44444444  0.61111111  0.51911624
   0.77777778  0.94444444  0.51911624
   0.77777778  0.27777778  0.51911624
   0.77777778  0.61111111  0.51911624
   0.38888889  0.55555556  0.47000000
Direct configuration=     2
   0.44444962  0.44443409  0.10442489
   0.44444654  0.77777235  0.10442527
   0.44445090  0.11111690  0.10442910
   0.77777187  0.44444166  0.10442779
   0.77777195  0.77778944  0.10443437
   0.77776554  0.11111690  0.10442910
   0.11111981  0.44444166  0.10442779
   0.11111445  0.77777235  0.10442527
   0.11110943  0.11111447  0.10443166
   0.55555548  0.55555333  0.17327029
   0.55556088  0.88889159  0.17327194
   0.55555499  0.22222335  0.17326554
   0.88888545  0.55556243  0.17327297
   0.88888086  0.88889159  0.17327194
   0.88888206  0.22222335  0.17326859
   0.22222452  0.55555333  0.17327029
   0.22222682  0.88887969  0.17326814
   0.22222792  0.22222335  0.17326859
   0.66666964  0.66667362  0.24249813
   0.66667383 -0.00001432  0.24249801
   0.66666062  0.33333636  0.24250131
  -0.00000993  0.66667362  0.24249813
  -0.00000201 -0.00000673  0.24249644
  -0.00000314  0.33333962  0.24250030
   0.33333335  0.66666663  0.24250049
   0.33334207 -0.00000673  0.24249644
   0.33333635  0.33333636  0.24250131
   0.77777340  0.77778653  0.31172907
   0.77776647  0.11111245  0.31172418
   0.77776249  0.44445069  0.31172901
   0.11110131  0.77776775  0.31171424
   0.11111451  0.11110432  0.31172930
   0.11112016  0.44445069  0.31172901
   0.44446428  0.77776775  0.31171424
   0.44445442  0.11111245  0.31172418
   0.44444153  0.44445027  0.31174204
   0.88887959  0.88888919  0.38096198
   0.88887739  0.22222761  0.38096746
   0.88888787  0.55555759  0.38097553
   0.22222699  0.88887934  0.38096557
   0.22222834  0.22222761  0.38096746
   0.22206519  0.55560213  0.38088016
   0.55556455  0.88888919  0.38096198
   0.55553671  0.22225992  0.38096437
   0.55566601  0.55560213  0.38088016
  -0.00002168  0.00002601  0.45018920
   0.00000026  0.33333282  0.45019168
   0.00001669  0.66664555  0.45018873
   0.33332900  0.00002601  0.45018920
   0.33330996  0.33335872  0.45018910
   0.32763340  0.67806654  0.44811329
   0.66666514  0.00000306  0.45018611
   0.66666466  0.33335872  0.45018910
   0.66667110  0.66664555  0.45018873
   0.11111019  0.11111295  0.51904372
   0.11109538  0.44446717  0.51902727
   0.11119028  0.77774343  0.51906425
   0.44444157  0.11112110  0.51903114
   0.44526037  0.44281259  0.51970516
   0.44439962  0.77774343  0.51906425
   0.77777066  0.11112110  0.51903114
   0.77777079  0.44446717  0.51902727
   0.77778058  0.77777217  0.51903686
   0.27777499  0.27778647  0.10442779
   0.27776742  0.61111629  0.10442489
   0.27777499  0.94443854  0.10442779
   0.61110568  0.27778111  0.10442527
   0.61110568  0.61111321  0.10442527
   0.61112277  0.94443861  0.10443437
   0.94444780  0.27777610  0.10443166
   0.94445023  0.61111757  0.10442910
   0.94445023  0.94443221  0.10442910
   0.38888667  0.38889118  0.17327029
   0.38888667  0.72222215  0.17327029
   0.38889576  0.05555212  0.17327297
   0.72221302  0.38889349  0.17326814
   0.72222492  0.72222755  0.17327194
   0.72222492  0.05554753  0.17327194
   0.05555668  0.38889459  0.17326859
   0.05555668  0.72222166  0.17326554
   0.05555668  0.05554873  0.17326859
   0.49999996  0.50000002  0.24250049
   0.50000695  0.83333631  0.24249813
   0.50000695  0.16665674  0.24249813
   0.83332660  0.50000874  0.24249644
   0.83331901  0.83334049  0.24249801
   0.83332660  0.16666466  0.24249644
   0.16666970  0.50000302  0.24250131
   0.16666970  0.83332729  0.24250131
   0.16667295  0.16666352  0.24250030
   0.61110108  0.61113094  0.31171424
   0.61111987  0.94444007  0.31172907
   0.61110108  0.27776798  0.31171424
   0.94444578  0.61112109  0.31172418
   0.94444578  0.94443313  0.31172418
   0.94443765  0.27778117  0.31172930
   0.27778360  0.61110820  0.31174204
   0.27778402  0.94442916  0.31172901
   0.27778402  0.27778682  0.31172901
   0.72222252  0.72223122  0.38096198
   0.72222252  0.05554626  0.38096198
   0.72221268  0.38889366  0.38096557
   0.05559325  0.72220337  0.38096437
   0.05556094  0.05554405  0.38096746
   0.05556094  0.38889501  0.38096746
   0.38893547  0.72233268  0.38088016
   0.38889092  0.05555454  0.38097553
   0.38893547  0.38873185  0.38088016
   0.83333639  0.83333181  0.45018611
   0.83335935  0.16664499  0.45018920
   0.83335935  0.49999567  0.45018920
   0.16669205  0.83333132  0.45018910
   0.16666615  0.16666692  0.45019168
   0.16669205  0.49997663  0.45018910
   0.49997888  0.83333776  0.45018873
   0.49997888  0.16668336  0.45018873
   0.51139987  0.49430006  0.44811329
   0.94445444  0.94443733  0.51903114
   0.94444628  0.27777686  0.51904372
   0.94445444  0.61110824  0.51903114
   0.27780050  0.94443745  0.51902727
   0.27780050  0.27776205  0.51902727
   0.27614592  0.61192704  0.51970516
   0.61110550  0.94444725  0.51903686
   0.61107677  0.27785695  0.51906425
   0.61107677  0.61106629  0.51906425
   0.27777560  0.44444226  0.10442964
   0.27777560  0.77778214  0.10442964
   0.27776169  0.11111916  0.10442911
   0.61111547  0.44444226  0.10442964
   0.61110651  0.77777318  0.10443499
   0.61110651  0.11112032  0.10443499
   0.94445249  0.44442835  0.10442911
   0.94445365  0.77777318  0.10443499
   0.94445249  0.11111916  0.10442911
   0.38888889  0.55555556  0.17327844
   0.38888686  0.88888273  0.17327173
   0.38888686  0.22223042  0.17327173
   0.72221606  0.55555352  0.17327173
   0.72222222  0.88888889  0.17327419
   0.72221606  0.22223042  0.17327173
   0.05556375  0.55555352  0.17327173
   0.05556375  0.88888273  0.17327173
   0.05555556  0.22222222  0.17326682
   0.49999929  0.66666595  0.24249990
   0.50000834 -0.00000417  0.24249695
   0.49999929  0.33333476  0.24249990
   0.83332916  0.66667501  0.24249695
   0.83332916 -0.00000417  0.24249695
   0.83332375  0.33333812  0.24249812
   0.16666809  0.66666595  0.24249990
   0.16667146 -0.00000958  0.24249812
   0.16667146  0.33333812  0.24249812
   0.61110680  0.77777346  0.31172995
   0.61110680  0.11111974  0.31172995
   0.61109407  0.44445297  0.31173299
   0.94445307  0.77777346  0.31172995
   0.94444373  0.11111040  0.31172108
   0.94444373  0.44444587  0.31172108
   0.27778630  0.77776074  0.31173299
   0.27777920  0.11111040  0.31172108
   0.27778630  0.44445297  0.31173299
   0.72222222  0.88888889  0.38095674
   0.72219942  0.22224379  0.38097024
   0.72219942  0.55555678  0.38097024
   0.05557713  0.88886609  0.38097024
   0.05555556  0.22222222  0.38096508
   0.05557713  0.55555678  0.38097024
   0.38889012  0.88886609  0.38097024
   0.38889012  0.22224379  0.38097024
   0.38888889  0.55555556  0.38032361
   0.83332932 -0.00000401  0.45018791
   0.83331710  0.33334145  0.45019055
   0.83332932  0.66667468  0.45018791
   0.16667478 -0.00001623  0.45019055
   0.16667478  0.33334145  0.45019055
   0.16593156  0.66703422  0.45008776
   0.50000802 -0.00000401  0.45018791
   0.50036755  0.33259822  0.45008776
   0.50036755  0.66703422  0.45008776
   0.94445700  0.11112367  0.51903334
   0.94445700  0.44441933  0.51903334
   0.94444526  0.77777737  0.51903132
   0.27775267  0.11112367  0.51903334
   0.27754011  0.44420677  0.51912487
   0.27754011  0.77825312  0.51912487
   0.61111070  0.11111192  0.51903132
   0.61158646  0.44420677  0.51912487
   0.61111070  0.77777737  0.51903132
   0.44444654  0.27778111  0.10442527
   0.44444962  0.61111629  0.10442489
   0.44445090  0.94443221  0.10442910
   0.77777187  0.27778647  0.10442779
   0.77776554  0.61111757  0.10442910
   0.77777195  0.94443861  0.10443437
   0.11110943  0.27777610  0.10443166
   0.11111445  0.61111321  0.10442527
   0.11111981  0.94443854  0.10442779
   0.55555548  0.38889118  0.17327029
   0.55555499  0.72222166  0.17326554
   0.55556088  0.05554753  0.17327194
   0.88888206  0.38889459  0.17326859
   0.88888086  0.72222755  0.17327194
   0.88888545  0.05555212  0.17327297
   0.22222682  0.38889349  0.17326814
   0.22222452  0.72222215  0.17327029
   0.22222792  0.05554873  0.17326859
   0.66666062  0.50000302  0.24250131
   0.66667383  0.83334049  0.24249801
   0.66666964  0.16665674  0.24249813
  -0.00000201  0.50000874  0.24249644
  -0.00000993  0.83333631  0.24249813
  -0.00000314  0.16666352  0.24250030
   0.33333335  0.50000002  0.24250049
   0.33333635  0.83332729  0.24250131
   0.33334207  0.16666466  0.24249644
   0.77776647  0.61112109  0.31172418
   0.77777340  0.94444007  0.31172907
   0.77776249  0.27778682  0.31172901
   0.11110131  0.61113094  0.31171424
   0.11112016  0.94442916  0.31172901
   0.11111451  0.27778117  0.31172930
   0.44444153  0.61110820  0.31174204
   0.44445442  0.94443313  0.31172418
   0.44446428  0.27776798  0.31171424
   0.88887959  0.72223122  0.38096198
   0.88888787  0.05555454  0.38097553
   0.88887739  0.38889501  0.38096746
   0.22206519  0.72233268  0.38088016
   0.22222834  0.05554405  0.38096746
   0.22222699  0.38889366  0.38096557
   0.55553671  0.72220337  0.38096437
   0.55556455  0.05554626  0.38096198
   0.55566601  0.38873185  0.38088016
   0.00001669  0.83333776  0.45018873
   0.00000026  0.16666692  0.45019168
  -0.00002168  0.49999567  0.45018920
   0.33330996  0.83333132  0.45018910
   0.33332900  0.16664499  0.45018920
   0.32763340  0.49430006  0.44811329
   0.66666514  0.83333181  0.45018611
   0.66667110  0.16668336  0.45018873
   0.66666466  0.49997663  0.45018910
   0.11109538  0.94443745  0.51902727
   0.11111019  0.27777686  0.51904372
   0.11119028  0.61106629  0.51906425
   0.44444157  0.94443733  0.51903114
   0.44439962  0.27785695  0.51906425
   0.44526037  0.61192704  0.51970516
   0.77778058  0.94444725  0.51903686
   0.77777079  0.27776205  0.51902727
   0.77777066  0.61110824  0.51903114
   0.38888889  0.55555556  0.47525235
Direct configuration=     3
   0.44445045  0.44443244  0.10443758
   0.44444687  0.77777149  0.10443802
   0.44445193  0.11111781  0.10444246
   0.77777093  0.44444122  0.10444095
   0.77777102  0.77779129  0.10444857
   0.77776359  0.11111781  0.10444246
   0.11112119  0.44444122  0.10444095
   0.11111498  0.77777149  0.10443802
   0.11110917  0.11111500  0.10444543
   0.55555547  0.55555298  0.17328380
   0.55556173  0.88889202  0.17328571
   0.55555490  0.22222353  0.17327829
   0.88888491  0.55556352  0.17328690
   0.88887958  0.88889202  0.17328571
   0.88888097  0.22222353  0.17328182
   0.22222488  0.55555298  0.17328380
   0.22222755  0.88887822  0.17328130
   0.22222883  0.22222353  0.17328182
   0.66667012  0.66667472  0.24249801
   0.66667496 -0.00001660  0.24249787
   0.66665966  0.33333685  0.24250170
  -0.00001151  0.66667472  0.24249801
  -0.00000233 -0.00000780  0.24249605
  -0.00000364  0.33334062  0.24250052
   0.33333335  0.66666662  0.24250074
   0.33334346 -0.00000780  0.24249605
   0.33333683  0.33333685  0.24250170
   0.77777270  0.77778793  0.31172881
   0.77776467  0.11111266  0.31172316
   0.77776006  0.44445168  0.31172875
   0.11109975  0.77776615  0.31171163
   0.11111505  0.11110324  0.31172909
   0.11112159  0.44445168  0.31172875
   0.44446743  0.77776615  0.31171163
   0.44445601  0.11111266  0.31172316
   0.44444107  0.44445120  0.31174385
   0.88887811  0.88888924  0.38096190
   0.88887556  0.22222846  0.38096826
   0.88888771  0.55555791  0.38097761
   0.22222775  0.88887783  0.38096607
   0.22222931  0.22222846  0.38096826
   0.22204021  0.55560954  0.38086708
   0.55556598  0.88888924  0.38096190
   0.55553371  0.22226591  0.38096468
   0.55568358  0.55560954  0.38086708
  -0.00002513  0.00003015  0.45017541
   0.00000030  0.33333274  0.45017828
   0.00001934  0.66664219  0.45017486
   0.33332831  0.00003015  0.45017541
   0.33330624  0.33336275  0.45017529
   0.32672693  0.67987947  0.44776936
   0.66666490  0.00000354  0.45017183
   0.66666434  0.33336275  0.45017529
   0.66667180  0.66664219  0.45017486
   0.11111004  0.11111324  0.51903218
   0.11109288  0.44447078  0.51901313
   0.11120287  0.77773797  0.51905598
   0.44444111  0.11112269  0.51901760
   0.44539013  0.44255307  0.51979882
   0.44439249  0.77773797  0.51905598
   0.77776953  0.11112269  0.51901760
   0.77776968  0.44447078  0.51901313
   0.77778103  0.77777128  0.51902424
   0.27777455  0.27778786  0.10444095
   0.27776577  0.61111711  0.10443758
   0.27777455  0.94443760  0.10444095
   0.61110482  0.27778164  0.10443802
   0.61110482  0.61111354  0.10443802
   0.61112463  0.94443769  0.10444857
   0.94444833  0.27777583  0.10444543
   0.94445115  0.61111859  0.10444246
   0.94445115  0.94443026  0.10444246
   0.38888631  0.38889155  0.17328380
   0.38888631  0.72222214  0.17328380
   0.38889686  0.05555157  0.17328690
   0.72221156  0.38889422  0.17328130
   0.72222535  0.72222840  0.17328571
   0.72222535  0.05554625  0.17328571
   0.05555686  0.38889550  0.17328182
   0.05555686  0.72222157  0.17327829
   0.05555686  0.05554764  0.17328182
   0.49999996  0.50000002  0.24250074
   0.50000805  0.83333678  0.24249801
   0.50000805  0.16665516  0.24249801
   0.83332553  0.50001012  0.24249605
   0.83331674  0.83334163  0.24249787
   0.83332553  0.16666434  0.24249605
   0.16667018  0.50000350  0.24250170
   0.16667018  0.83332633  0.24250170
   0.16667395  0.16666302  0.24250052
   0.61109948  0.61113410  0.31171163
   0.61112126  0.94443937  0.31172881
   0.61109948  0.27776642  0.31171163
   0.94444599  0.61112268  0.31172316
   0.94444599  0.94443133  0.31172316
   0.94443657  0.27778171  0.31172909
   0.27778453  0.61110774  0.31174385
   0.27778501  0.94442673  0.31172875
   0.27778501  0.27778826  0.31172875
   0.72222257  0.72223265  0.38096190
   0.72222257  0.05554478  0.38096190
   0.72221116  0.38889442  0.38096607
   0.05559925  0.72220038  0.38096468
   0.05556180  0.05554222  0.38096826
   0.05556180  0.38889598  0.38096826
   0.38894287  0.72235025  0.38086708
   0.38889124  0.05555438  0.38097761
   0.38894287  0.38870688  0.38086708
   0.83333688  0.83333156  0.45017183
   0.83336348  0.16664154  0.45017541
   0.83336348  0.49999498  0.45017541
   0.16669609  0.83333100  0.45017529
   0.16666607  0.16666697  0.45017828
   0.16669609  0.49997291  0.45017529
   0.49997552  0.83333847  0.45017486
   0.49997552  0.16668601  0.45017486
   0.51321280  0.49339360  0.44776936
   0.94445603  0.94443620  0.51901760
   0.94444658  0.27777671  0.51903218
   0.94445603  0.61110778  0.51901760
   0.27780411  0.94443634  0.51901313
   0.27780411  0.27775954  0.51901313
   0.27588641  0.61205680  0.51979882
   0.61110461  0.94444769  0.51902424
   0.61107130  0.27786954  0.51905598
   0.61107130  0.61105916  0.51905598
   0.27777525  0.44444192  0.10444309
   0.27777525  0.77778283  0.10444309
   0.27775913  0.11112044  0.10444248
   0.61111616  0.44444192  0.10444309
   0.61110578  0.77777244  0.10444929
   0.61110578  0.11112178  0.10444929
   0.94445377  0.44442579  0.10444248
   0.94445511  0.77777244  0.10444929
   0.94445377  0.11112044  0.10444248
   0.38888889  0.55555556  0.17329324
   0.38888654  0.88888175  0.17328546
   0.38888654  0.22223172  0.17328546
   0.72221508  0.55555320  0.17328546
   0.72222222  0.88888889  0.17328831
   0.72221508  0.22223172  0.17328546
   0.05556505  0.55555320  0.17328546
   0.05556505  0.88888175  0.17328546
   0.05555556  0.22222222  0.17327977
   0.49999917  0.66666584  0.24250006
   0.50000967 -0.00000483  0.24249664
   0.49999917  0.33333499  0.24250006
   0.83332850  0.66667633  0.24249664
   0.83332850 -0.00000483  0.24249664
   0.83332223  0.33333889  0.24249799
   0.16666832  0.66666584  0.24250006
   0.16667222 -0.00001111  0.24249799
   0.16667222  0.33333889  0.24249799
   0.61110611  0.77777278  0.31172984
   0.61110611  0.11112111  0.31172984
   0.61109136  0.44445432  0.31173337
   0.94445444  0.77777278  0.31172984
   0.94444362  0.11111029  0.31171956
   0.94444362  0.44444610  0.31171956
   0.27778765  0.77775803  0.31173337
   0.27777943  0.11111029  0.31171956
   0.27778765  0.44445432  0.31173337
   0.72222222  0.88888889  0.38095583
   0.72219580  0.22224723  0.38097148
   0.72219580  0.55555698  0.38097148
   0.05558056  0.88886246  0.38097148
   0.05555556  0.22222222  0.38096550
   0.05558056  0.55555698  0.38097148
   0.38889031  0.88886246  0.38097148
   0.38889031  0.22224723  0.38097148
   0.38888889  0.55555556  0.38022202
   0.83332869 -0.00000465  0.45017391
   0.83331452  0.33334274  0.45017697
   0.83332869  0.66667596  0.45017391
   0.16667607 -0.00001881  0.45017697
   0.16667607  0.33334274  0.45017697
   0.16581465  0.66709267  0.45005784
   0.50000929 -0.00000465  0.45017391
   0.50042601  0.33248132  0.45005784
   0.50042601  0.66709267  0.45005784
   0.94445900  0.11112566  0.51902016
   0.94445900  0.44441534  0.51902016
   0.94444539  0.77777731  0.51901781
   0.27774867  0.11112566  0.51902016
   0.27750231  0.44416897  0.51912624
   0.27750231  0.77832872  0.51912624
   0.61111064  0.11111205  0.51901781
   0.61166205  0.44416897  0.51912624
   0.61111064  0.77777731  0.51901781
   0.44444687  0.27778164  0.10443802
   0.44445045  0.61111711  0.10443758
   0.44445193  0.94443026  0.10444246
   0.77777093  0.27778786  0.10444095
   0.77776359  0.61111859  0.10444246
   0.77777102  0.94443769  0.10444857
   0.11110917  0.27777583  0.10444543
   0.11111498  0.61111354  0.10443802
   0.11112119  0.94443760  0.10444095
   0.55555547  0.38889155  0.17328380
   0.55555490  0.72222157  0.17327829
   0.55556173  0.05554625  0.17328571
   0.88888097  0.38889550  0.17328182
   0.88887958  0.72222840  0.17328571
   0.88888491  0.05555157  0.17328690
   0.22222755  0.38889422  0.17328130
   0.22222488  0.72222214  0.17328380
   0.22222883  0.05554764  0.17328182
   0.66665966  0.50000350  0.24250170
   0.66667496  0.83334163  0.24249787
   0.66667012  0.16665516  0.24249801
  -0.00000233  0.50001012  0.24249605
  -0.00001151  0.83333678  0.24249801
  -0.00000364  0.16666302  0.24250052
   0.33333335  0.50000002  0.24250074
   0.33333683  0.83332633  0.24250170
   0.33334346  0.16666434  0.24249605
   0.77776467  0.61112268  0.31172316
   0.77777270  0.94443937  0.31172881
   0.77776006  0.27778826  0.31172875
   0.11109975  0.61113410  0.31171163
   0.11112159  0.94442673  0.31172875
   0.11111505  0.27778171  0.31172909
   0.44444107  0.61110774  0.31174385
   0.44445601  0.94443133  0.31172316
   0.44446743  0.27776642  0.31171163
   0.88887811  0.72223265  0.38096190
   0.88888771  0.05555438  0.38097761
   0.88887556  0.38889598  0.38096826
   0.22204021  0.72235025  0.38086708
   0.22222931  0.05554222  0.38096826
   0.22222775  0.38889442  0.38096607
   0.55553371  0.72220038  0.38096468
   0.55556598  0.05554478  0.38096190
   0.55568358  0.38870688  0.38086708
   0.00001934  0.83333847  0.45017486
   0.00000030  0.16666697  0.45017828
  -0.00002513  0.49999498  0.45017541
   0.33330624  0.83333100  0.45017529
   0.33332831  0.16664154  0.45017541
   0.32672693  0.49339360  0.44776936
   0.66666490  0.83333156  0.45017183
   0.66667180  0.16668601  0.45017486
   0.66666434  0.49997291  0.45017529
   0.11109288  0.94443634  0.51901313
   0.11111004  0.27777671  0.51903218
   0.11120287  0.61105916  0.51905598
   0.44444111  0.94443620  0.51901760
   0.44439249  0.27786954  0.51905598
   0.44539013  0.61205680  0.51979882
   0.77778103  0.94444769  0.51902424
   0.77776968  0.27775954  0.51901313
   0.77776953  0.61110778  0.51901760
   0.38888889  0.55555556  0.47608764
Direct configuration=     4
   0.44445209  0.44442915  0.10446297
   0.44444754  0.77776976  0.10446353
   0.44445398  0.11111965  0.10446919
   0.77776905  0.44444033  0.10446726
   0.77776916  0.77779500  0.10447697
   0.77775970  0.11111965  0.10446919
   0.11112395  0.44444033  0.10446726
   0.11111604  0.77776976  0.10446353
   0.11110863  0.11111607  0.10447298
   0.55555545  0.55555227  0.17331081
   0.55556343  0.88889288  0.17331324
   0.55555472  0.22222389  0.17330379
   0.88888381  0.55556571  0.17331476
   0.88887703  0.88889288  0.17331324
   0.88887880  0.22222389  0.17330829
   0.22222561  0.55555227  0.17331081
   0.22222902  0.88887530  0.17330762
   0.22223064  0.22222389  0.17330829
   0.66667107  0.66667693  0.24249777
   0.66667724 -0.00002115  0.24249759
   0.66665774  0.33333781  0.24250247
  -0.00001466  0.66667693  0.24249777