 254 254   0   0
  0.2268316E+02  0.1514622E-08  0.1514622E-08  0.2900000E-08  0.5000000E-15
   1.0000000000000000E-004
  CAR 
 NiAl                                    
      6.24132786    -27.59444063  301     -0.50314629      1.00000000
    -27.594  0.0000E+00  0.0000E+00
    -27.482  0.0000E+00  0.0000E+00
    -27.369  0.0000E+00  0.0000E+00
    -27.256  0.0000E+00  0.0000E+00
    -27.143  0.0000E+00  0.0000E+00
    -27.031  0.0000E+00  0.0000E+00
    -26.918  0.0000E+00  0.0000E+00
    -26.805  0.0000E+00  0.0000E+00
    -26.692  0.0000E+00  0.0000E+00
    -26.579  0.0000E+00  0.0000E+00
    -26.467  0.0000E+00  0.0000E+00
    -26.354  0.0000E+00  0.0000E+00
    -26.241  0.1549E-05  0.1748E-06
    -26.128  0.3717E+00  0.4192E-01
    -26.015  0.1516E+02  0.1752E+01
    -25.903  0.2197E+01  0.2000E+01
    -25.790  0.1230E-03  0.2000E+01
    -25.677  0.4302E-12  0.2000E+01
    -25.564  0.0000E+00  0.2000E+01
    -25.452  0.0000E+00  0.2000E+01
    -25.339  0.0000E+00  0.2000E+01
    -25.226  0.0000E+00  0.2000E+01
    -25.113  0.0000E+00  0.2000E+01
    -25.000  0.0000E+00  0.2000E+01
    -24.888  0.0000E+00  0.2000E+01
    -24.775  0.0000E+00  0.2000E+01
    -24.662  0.0000E+00  0.2000E+01
    -24.549  0.0000E+00  0.2000E+01
    -24.436  0.0000E+00  0.2000E+01
    -24.324  0.0000E+00  0.2000E+01
    -24.211  0.0000E+00  0.2000E+01
    -24.098  0.0000E+00  0.2000E+01
    -23.985  0.0000E+00  0.2000E+01
    -23.873  0.0000E+00  0.2000E+01
    -23.760  0.0000E+00  0.2000E+01
    -23.647  0.0000E+00  0.2000E+01
    -23.534  0.0000E+00  0.2000E+01
    -23.421  0.0000E+00  0.2000E+01
    -23.309  0.0000E+00  0.2000E+01
    -23.196  0.0000E+00  0.2000E+01
    -23.083  0.0000E+00  0.2000E+01
    -22.970  0.0000E+00  0.2000E+01
    -22.857  0.0000E+00  0.2000E+01
    -22.745  0.0000E+00  0.2000E+01
    -22.632  0.0000E+00  0.2000E+01
    -22.519  0.0000E+00  0.2000E+01
    -22.406  0.0000E+00  0.2000E+01
    -22.294  0.0000E+00  0.2000E+01
    -22.181  0.0000E+00  0.2000E+01
    -22.068  0.0000E+00  0.2000E+01
    -21.955  0.0000E+00  0.2000E+01
    -21.842  0.0000E+00  0.2000E+01
    -21.730  0.0000E+00  0.2000E+01
    -21.617  0.0000E+00  0.2000E+01
    -21.504  0.0000E+00  0.2000E+01
    -21.391  0.0000E+00  0.2000E+01
    -21.278  0.0000E+00  0.2000E+01
    -21.166  0.0000E+00  0.2000E+01
    -21.053  0.0000E+00  0.2000E+01
    -20.940  0.0000E+00  0.2000E+01
    -20.827  0.0000E+00  0.2000E+01
    -20.715  0.0000E+00  0.2000E+01
    -20.602  0.0000E+00  0.2000E+01
    -20.489  0.0000E+00  0.2000E+01
    -20.376  0.0000E+00  0.2000E+01
    -20.263  0.0000E+00  0.2000E+01
    -20.151  0.0000E+00  0.2000E+01
    -20.038  0.0000E+00  0.2000E+01
    -19.925  0.0000E+00  0.2000E+01
    -19.812  0.1331E-10  0.2000E+01
    -19.699  0.9099E-03  0.2000E+01
    -19.587  0.4322E+01  0.2488E+01
    -19.474  0.1330E+02  0.3987E+01
    -19.361  0.1114E+00  0.4000E+01
    -19.248  0.1154E-06  0.4000E+01
    -19.135  0.0000E+00  0.4000E+01
    -19.023  0.0000E+00  0.4000E+01
    -18.910  0.0000E+00  0.4000E+01
    -18.797  0.0000E+00  0.4000E+01
    -18.684  0.0000E+00  0.4000E+01
    -18.572  0.0000E+00  0.4000E+01
    -18.459  0.0000E+00  0.4000E+01
    -18.346  0.0000E+00  0.4000E+01
    -18.233  0.0000E+00  0.4000E+01
    -18.120  0.0000E+00  0.4000E+01
    -18.008  0.0000E+00  0.4000E+01
    -17.895  0.0000E+00  0.4000E+01
    -17.782  0.0000E+00  0.4000E+01
    -17.669  0.0000E+00  0.4000E+01
    -17.556  0.0000E+00  0.4000E+01
    -17.444  0.0000E+00  0.4000E+01
    -17.331  0.0000E+00  0.4000E+01
    -17.218  0.0000E+00  0.4000E+01
    -17.105  0.0000E+00  0.4000E+01
    -16.993  0.0000E+00  0.4000E+01
    -16.880  0.0000E+00  0.4000E+01
    -16.767  0.0000E+00  0.4000E+01
    -16.654  0.0000E+00  0.4000E+01
    -16.541  0.0000E+00  0.4000E+01
    -16.429  0.0000E+00  0.4000E+01
    -16.316  0.0000E+00  0.4000E+01
    -16.203  0.0000E+00  0.4000E+01
    -16.090  0.0000E+00  0.4000E+01
    -15.977  0.0000E+00  0.4000E+01
    -15.865  0.0000E+00  0.4000E+01
    -15.752  0.0000E+00  0.4000E+01
    -15.639  0.0000E+00  0.4000E+01
    -15.526  0.0000E+00  0.4000E+01
    -15.414  0.0000E+00  0.4000E+01
    -15.301  0.0000E+00  0.4000E+01
    -15.188  0.0000E+00  0.4000E+01
    -15.075  0.0000E+00  0.4000E+01
    -14.962  0.0000E+00  0.4000E+01
    -14.850  0.0000E+00  0.4000E+01
    -14.737  0.0000E+00  0.4000E+01
    -14.624  0.0000E+00  0.4000E+01
    -14.511  0.0000E+00  0.4000E+01
    -14.398  0.0000E+00  0.4000E+01
    -14.286  0.0000E+00  0.4000E+01
    -14.173  0.0000E+00  0.4000E+01
    -14.060  0.0000E+00  0.4000E+01
    -13.947  0.0000E+00  0.4000E+01
    -13.835  0.0000E+00  0.4000E+01
    -13.722  0.0000E+00  0.4000E+01
    -13.609  0.0000E+00  0.4000E+01
    -13.496  0.0000E+00  0.4000E+01
    -13.383  0.0000E+00  0.4000E+01
    -13.271  0.0000E+00  0.4000E+01
    -13.158  0.0000E+00  0.4000E+01
    -13.045  0.0000E+00  0.4000E+01
    -12.932  0.0000E+00  0.4000E+01
    -12.819  0.0000E+00  0.4000E+01
    -12.707  0.0000E+00  0.4000E+01
    -12.594  0.0000E+00  0.4000E+01
    -12.481  0.0000E+00  0.4000E+01
    -12.368  0.0000E+00  0.4000E+01
    -12.256  0.0000E+00  0.4000E+01
    -12.143  0.0000E+00  0.4000E+01
    -12.030  0.0000E+00  0.4000E+01
    -11.917  0.0000E+00  0.4000E+01
    -11.804  0.0000E+00  0.4000E+01
    -11.692  0.0000E+00  0.4000E+01
    -11.579  0.0000E+00  0.4000E+01
    -11.466  0.0000E+00  0.4000E+01
    -11.353  0.0000E+00  0.4000E+01
    -11.240  0.0000E+00  0.4000E+01
    -11.128  0.2357E-07  0.4000E+01
    -11.015  0.5103E-01  0.4006E+01
    -10.902  0.1176E+02  0.5332E+01
    -10.789  0.5922E+01  0.6000E+01
    -10.677  0.2625E-02  0.6000E+01
    -10.564  0.8729E-10  0.6000E+01
    -10.451  0.0000E+00  0.6000E+01
    -10.338  0.0000E+00  0.6000E+01
    -10.225  0.0000E+00  0.6000E+01
    -10.113  0.0000E+00  0.6000E+01
    -10.000  0.0000E+00  0.6000E+01
     -9.887  0.1706E-08  0.6000E+01
     -9.774  0.1314E-01  0.6001E+01
     -9.661  0.8929E+01  0.7009E+01
     -9.549  0.8778E+01  0.7999E+01
     -9.436  0.1220E-01  0.8000E+01
     -9.323  0.6907E-02  0.8001E+01
     -9.210  0.7586E+01  0.8856E+01
     -9.098  0.1046E+02  0.1004E+02
     -8.985  0.3942E+01  0.1048E+02
     -8.872  0.2597E+01  0.1077E+02
     -8.759  0.2323E+02  0.1339E+02
     -8.646  0.9422E+00  0.1350E+02
     -8.534  0.1418E+01  0.1366E+02
     -8.421  0.5469E+01  0.1428E+02
     -8.308  0.3242E+02  0.1793E+02
     -8.195  0.2126E+02  0.2033E+02
     -8.082  0.2299E+02  0.2292E+02
     -7.970  0.6943E+00  0.2300E+02
     -7.857  0.1277E+02  0.2444E+02
     -7.744  0.1421E+02  0.2605E+02
     -7.631  0.1992E+02  0.2829E+02
     -7.519  0.3459E+02  0.3219E+02
     -7.406  0.5437E+02  0.3833E+02
     -7.293  0.1544E+01  0.3850E+02
     -7.180  0.5585E+00  0.3856E+02
     -7.067  0.3877E+02  0.4294E+02
     -6.955  0.6528E+02  0.5030E+02
     -6.842  0.2332E+02  0.5293E+02
     -6.729  0.2307E+02  0.5553E+02
     -6.616  0.2546E+02  0.5840E+02
     -6.503  0.2427E+02  0.6114E+02
     -6.391  0.3977E+02  0.6563E+02
     -6.278  0.7559E+02  0.7415E+02
     -6.165  0.2749E+02  0.7725E+02
     -6.052  0.4867E+02  0.8274E+02
     -5.940  0.6861E+02  0.9048E+02
     -5.827  0.7942E+02  0.9944E+02
     -5.714  0.5021E+01  0.1000E+03
     -5.601  0.5334E+01  0.1006E+03
     -5.488  0.3341E+02  0.1044E+03
     -5.376  0.1074E+03  0.1165E+03
     -5.263  0.1007E+03  0.1278E+03
     -5.150  0.5883E+02  0.1345E+03
     -5.037  0.1111E+03  0.1470E+03
     -4.924  0.1034E+03  0.1587E+03
     -4.812  0.3712E+02  0.1628E+03
     -4.699  0.1631E+03  0.1812E+03
     -4.586  0.2146E+03  0.2054E+03
     -4.473  0.2023E+03  0.2283E+03
     -4.361  0.2333E+03  0.2546E+03
     -4.248  0.3037E+03  0.2888E+03
     -4.135  0.2388E+03  0.3158E+03
     -4.022  0.2209E+03  0.3407E+03
     -3.909  0.3841E+03  0.3840E+03
     -3.797  0.4374E+03  0.4333E+03
     -3.684  0.4948E+03  0.4891E+03
     -3.571  0.4136E+03  0.5358E+03
     -3.458  0.4645E+03  0.5882E+03
     -3.345  0.3709E+03  0.6300E+03
     -3.233  0.3386E+03  0.6682E+03
     -3.120  0.4546E+03  0.7195E+03
     -3.007  0.4985E+03  0.7757E+03
     -2.894  0.3590E+03  0.8162E+03
     -2.782  0.5882E+03  0.8825E+03
     -2.669  0.5128E+03  0.9404E+03
     -2.556  0.5477E+03  0.1002E+04
     -2.443  0.5657E+03  0.1066E+04
     -2.330  0.7025E+03  0.1145E+04
     -2.218  0.8003E+03  0.1235E+04
     -2.105  0.8745E+03  0.1334E+04
     -1.992  0.8211E+03  0.1427E+04
     -1.879  0.8930E+03  0.1527E+04
     -1.766  0.5968E+03  0.1595E+04
     -1.654  0.5928E+03  0.1662E+04
     -1.541  0.5469E+03  0.1723E+04
     -1.428  0.5499E+03  0.1785E+04
     -1.315  0.8028E+03  0.1876E+04
     -1.203  0.7023E+03  0.1955E+04
     -1.090  0.5273E+03  0.2014E+04
     -0.977  0.7637E+03  0.2101E+04
     -0.864  0.8446E+03  0.2196E+04
     -0.751  0.6725E+03  0.2272E+04
     -0.639  0.8377E+03  0.2366E+04
     -0.526  0.1221E+04  0.2504E+04
     -0.413  0.9792E+03  0.2614E+04
     -0.300  0.3825E+03  0.2657E+04
     -0.187  0.1352E+03  0.2673E+04
     -0.075  0.1451E+03  0.2689E+04
      0.038  0.1565E+03  0.2707E+04
      0.151  0.9048E+02  0.2717E+04
      0.264  0.6895E+02  0.2725E+04
      0.376  0.3852E+02  0.2729E+04
      0.489  0.9982E+02  0.2740E+04
      0.602  0.8724E+02  0.2750E+04
      0.715  0.9168E+02  0.2760E+04
      0.828  0.8042E+02  0.2770E+04
      0.940  0.1214E+03  0.2783E+04
      1.053  0.1348E+03  0.2798E+04
      1.166  0.3782E+02  0.2803E+04
      1.279  0.4429E+02  0.2808E+04
      1.392  0.1113E+03  0.2820E+04
      1.504  0.4692E+02  0.2826E+04
      1.617  0.5769E+02  0.2832E+04
      1.730  0.1022E+03  0.2844E+04
      1.843  0.8266E+02  0.2853E+04
      1.955  0.9484E+02  0.2864E+04
      2.068  0.6934E+02  0.2871E+04
      2.181  0.6195E+02  0.2878E+04
      2.294  0.8749E+02  0.2888E+04
      2.407  0.1163E+03  0.2901E+04
      2.519  0.3574E+02  0.2905E+04
      2.632  0.6832E+02  0.2913E+04
      2.745  0.3560E+02  0.2917E+04
      2.858  0.2936E+02  0.2920E+04
      2.971  0.5008E+02  0.2926E+04
      3.083  0.1502E+03  0.2943E+04
      3.196  0.1492E+03  0.2960E+04
      3.309  0.4514E+02  0.2965E+04
      3.422  0.3438E+02  0.2969E+04
      3.534  0.9258E+02  0.2979E+04
      3.647  0.3629E+02  0.2983E+04
      3.760  0.7177E+02  0.2991E+04
      3.873  0.2697E+02  0.2995E+04
      3.986  0.1928E+02  0.2997E+04
      4.098  0.2212E+02  0.2999E+04
      4.211  0.5681E+02  0.3006E+04
      4.324  0.3551E+02  0.3010E+04
      4.437  0.7438E+02  0.3018E+04
      4.550  0.7618E+02  0.3027E+04
      4.662  0.5635E+02  0.3033E+04
      4.775  0.4462E+02  0.3038E+04
      4.888  0.3009E+00  0.3038E+04
      5.001  0.6433E-06  0.3038E+04
      5.113  0.0000E+00  0.3038E+04
      5.226  0.0000E+00  0.3038E+04
      5.339  0.0000E+00  0.3038E+04
      5.452  0.0000E+00  0.3038E+04
      5.565  0.0000E+00  0.3038E+04
      5.677  0.0000E+00  0.3038E+04
      5.790  0.0000E+00  0.3038E+04
      5.903  0.0000E+00  0.3038E+04
      6.016  0.0000E+00  0.3038E+04
      6.129  0.0000E+00  0.3038E+04
      6.241  0.0000E+00  0.3038E+04
