  254  254    1    1
  0.2268316E+02  0.1514622E-08  0.1514622E-08  0.2900000E-08  0.5000000E-15
   1.0000000000000000E-004
  CAR 
 NiAl                                    
   2532      3   1519
 
  0.1262379E-14  0.1262379E-14  0.1262379E-14  0.2500000E+00
    1      -26.056451   1.000000
    2      -19.562163   1.000000
    3      -10.917546   1.000000
    4       -9.663150   1.000000
    5       -9.208751   1.000000
    6       -9.047348   1.000000
    7       -8.517077   1.000000
    8       -8.156028   1.000000
    9       -8.155257   1.000000
   10       -8.155108   1.000000
   11       -8.154851   1.000000
   12       -8.151855   1.000000
   13       -8.141199   1.000000
   14       -7.694260   1.000000
   15       -7.653297   1.000000
   16       -7.649569   1.000000
   17       -7.649443   1.000000
   18       -7.648985   1.000000
   19       -7.641018   1.000000
   20       -7.600805   1.000000
   21       -6.868893   1.000000
   22       -6.862181   1.000000
   23       -6.861307   1.000000
   24       -6.860827   1.000000
   25       -6.851568   1.000000
   26       -6.821858   1.000000
   27       -6.809670   1.000000
   28       -6.647018   1.000000
   29       -6.518613   1.000000
   30       -6.515212   1.000000
   31       -6.514692   1.000000
   32       -6.514479   1.000000
   33       -6.512726   1.000000
   34       -6.511798   1.000000
   35       -6.145805   1.000000
   36       -6.094434   1.000000
   37       -6.092787   1.000000
   38       -6.092532   1.000000
   39       -6.088555   1.000000
   40       -6.086461   1.000000
   41       -6.048342   1.000000
   42       -5.891509   1.000000
   43       -5.890368   1.000000
   44       -5.889326   1.000000
   45       -5.887829   1.000000
   46       -5.886012   1.000000
   47       -5.885572   1.000000
   48       -5.884823   1.000000
   49       -5.884208   1.000000
   50       -5.883490   1.000000
   51       -5.878242   1.000000
   52       -5.874070   1.000000
   53       -5.822252   1.000000
   54       -5.628829   1.000000
   55       -5.556282   1.000000
   56       -5.551639   1.000000
   57       -5.550805   1.000000
   58       -5.547420   1.000000
   59       -5.544375   1.000000
   60       -5.542825   1.000000
   61       -5.465492   1.000000
   62       -5.463289   1.000000
   63       -5.460570   1.000000
   64       -5.460289   1.000000
   65       -5.450117   1.000000
   66       -5.447992   1.000000
   67       -5.102949   1.000000
   68       -5.099055   1.000000
   69       -5.095589   1.000000
   70       -5.089431   1.000000
   71       -5.085941   1.000000
   72       -5.084682   1.000000
   73       -4.990015   1.000000
   74       -4.942144   1.000000
   75       -4.939598   1.000000
   76       -4.938861   1.000000
   77       -4.938621   1.000000
   78       -4.937978   1.000000
   79       -4.876941   1.000000
   80       -4.800372   1.000000
   81       -4.748743   1.000000
   82       -4.746508   1.000000
   83       -4.746389   1.000000
   84       -4.738554   1.000000
   85       -4.734017   1.000000
   86       -4.730128   1.000000
   87       -4.729402   1.000000
   88       -4.720628   1.000000
   89       -4.710930   1.000000
   90       -4.634518   1.000000
   91       -4.627542   1.000000
   92       -4.627413   1.000000
   93       -4.620578   1.000000
   94       -4.617930   1.000000
   95       -4.617205   1.000000
   96       -4.590628   1.000000
   97       -4.590337   1.000000
   98       -4.590262   1.000000
   99       -4.519131   1.000000
  100       -4.518813   1.000000
  101       -4.518229   1.000000
  102       -4.514454   1.000000
  103       -4.513913   1.000000
  104       -4.513857   1.000000
  105       -4.513769   1.000000
  106       -4.513542   1.000000
  107       -4.513350   1.000000
  108       -4.513321   1.000000
  109       -4.513198   1.000000
  110       -4.512647   1.000000
  111       -4.473088   1.000000
  112       -4.472067   1.000000
  113       -4.469199   1.000000
  114       -4.389277   1.000000
  115       -4.385373   1.000000
  116       -4.383231   1.000000
  117       -4.372175   1.000000
  118       -4.365097   1.000000
  119       -4.361311   1.000000
  120       -4.361094   1.000000
  121       -4.360045   1.000000
  122       -4.340429   1.000000
  123       -4.332518   1.000000
  124       -4.329286   1.000000
  125       -4.324026   1.000000
  126       -4.316953   1.000000
  127       -4.315645   1.000000
  128       -4.315627   1.000000
  129       -4.315283   1.000000
  130       -4.315127   1.000000
  131       -4.314999   1.000000
  132       -4.314470   1.000000
  133       -4.313398   1.000000
  134       -4.312327   1.000000
  135       -4.290956   1.000000
  136       -4.289380   1.000000
  137       -4.285959   1.000000
  138       -4.284724   1.000000
  139       -4.282012   1.000000
  140       -4.281419   1.000000
  141       -4.280811   1.000000
  142       -4.280771   1.000000
  143       -4.280465   1.000000
  144       -4.280151   1.000000
  145       -4.279931   1.000000
  146       -4.279775   1.000000
  147       -4.242542   1.000000
  148       -4.238600   1.000000
  149       -4.236526   1.000000
  150       -4.236397   1.000000
  151       -4.235927   1.000000
  152       -4.234319   1.000000
  153       -4.211679   1.000000
  154       -4.208907   1.000000
  155       -4.202630   1.000000
  156       -4.202469   1.000000
  157       -4.196001   1.000000
  158       -4.189251   1.000000
  159       -4.185594   1.000000
  160       -4.181659   1.000000
  161       -4.176717   1.000000
  162       -4.163209   1.000000
  163       -4.162774   1.000000
  164       -4.159561   1.000000
  165       -4.152118   1.000000
  166       -4.144435   1.000000
  167       -4.143767   1.000000
  168       -4.143137   1.000000
  169       -4.142186   1.000000
  170       -4.141713   1.000000
  171       -4.140292   1.000000
  172       -4.138656   1.000000
  173       -4.137130   1.000000
  174       -4.080513   1.000000
  175       -4.079418   1.000000
  176       -4.075201   1.000000
  177       -4.075137   1.000000
  178       -4.071709   1.000000
  179       -4.063658   1.000000
  180       -4.038543   1.000000
  181       -4.034008   1.000000
  182       -4.033382   1.000000
  183       -4.024406   1.000000
  184       -3.964833   1.000000
  185       -3.961900   1.000000
  186       -3.958867   1.000000
  187       -3.957485   1.000000
  188       -3.953791   1.000000
  189       -3.952391   1.000000
  190       -3.944751   1.000000
  191       -3.942916   1.000000
  192       -3.942555   1.000000
  193       -3.942325   1.000000
  194       -3.940937   1.000000
  195       -3.939803   1.000000
  196       -3.934428   1.000000
  197       -3.927115   1.000000
  198       -3.893408   1.000000
  199       -3.881117   1.000000
  200       -3.877912   1.000000
  201       -3.870433   1.000000
  202       -3.835228   1.000000
  203       -3.827504   1.000000
  204       -3.827396   1.000000
  205       -3.825163   1.000000
  206       -3.823554   1.000000
  207       -3.822179   1.000000
  208       -3.805754   1.000000
  209       -3.798173   1.000000
  210       -3.771629   1.000000
  211       -3.758121   1.000000
  212       -3.756917   1.000000
  213       -3.755419   1.000000
  214       -3.755012   1.000000
  215       -3.754366   1.000000
  216       -3.753647   1.000000
  217       -3.753494   1.000000
  218       -3.753432   1.000000
  219       -3.753193   1.000000
  220       -3.753183   1.000000
  221       -3.751392   1.000000
  222       -3.750342   1.000000
  223       -3.749670   1.000000
  224       -3.749012   1.000000
  225       -3.748183   1.000000
  226       -3.742577   1.000000
  227       -3.737071   1.000000
  228       -3.724265   1.000000
  229       -3.711475   1.000000
  230       -3.709871   1.000000
  231       -3.699507   1.000000
  232       -3.698250   1.000000
  233       -3.696852   1.000000
  234       -3.696066   1.000000
  235       -3.694877   1.000000
  236       -3.693830   1.000000
  237       -3.693694   1.000000
  238       -3.691421   1.000000
  239       -3.688593   1.000000
  240       -3.679544   1.000000
  241       -3.674282   1.000000
  242       -3.673668   1.000000
  243       -3.672497   1.000000
  244       -3.672019   1.000000
  245       -3.656406   1.000000
  246       -3.635817   1.000000
  247       -3.633986   1.000000
  248       -3.633701   1.000000
  249       -3.633478   1.000000
  250       -3.632346   1.000000
  251       -3.631821   1.000000
  252       -3.630607   1.000000
  253       -3.628070   1.000000
  254       -3.627513   1.000000
  255       -3.627201   1.000000
  256       -3.620900   1.000000
  257       -3.619499   1.000000
  258       -3.618028   1.000000
  259       -3.586332   1.000000
  260       -3.577488   1.000000
  261       -3.574993   1.000000
  262       -3.569790   1.000000
  263       -3.567963   1.000000
  264       -3.566372   1.000000
  265       -3.565966   1.000000
  266       -3.565541   1.000000
  267       -3.565365   1.000000
  268       -3.565228   1.000000
  269       -3.562531   1.000000
  270       -3.559750   1.000000
  271       -3.559316   1.000000
  272       -3.545167   1.000000
  273       -3.544782   1.000000
  274       -3.537820   1.000000
  275       -3.533173   1.000000
  276       -3.532170   1.000000
  277       -3.528577   1.000000
  278       -3.525127   1.000000
  279       -3.518422   1.000000
  280       -3.513740   1.000000
  281       -3.503063   1.000000
  282       -3.497856   1.000000
  283       -3.497535   1.000000
  284       -3.492068   1.000000
  285       -3.491423   1.000000
  286       -3.489183   1.000000
  287       -3.488578   1.000000
  288       -3.488501   1.000000
  289       -3.486758   1.000000
  290       -3.486074   1.000000
  291       -3.485732   1.000000
  292       -3.485322   1.000000
  293       -3.484299   1.000000
  294       -3.483706   1.000000
  295       -3.483312   1.000000
  296       -3.477458   1.000000
  297       -3.468569   1.000000
  298       -3.460462   1.000000
  299       -3.425414   1.000000
  300       -3.419493   1.000000
  301       -3.414855   1.000000
  302       -3.414844   1.000000
  303       -3.412936   1.000000
  304       -3.411174   1.000000
  305       -3.409475   1.000000
  306       -3.409014   1.000000
  307       -3.407689   1.000000
  308       -3.406795   1.000000
  309       -3.406660   1.000000
  310       -3.403977   1.000000
  311       -3.403274   1.000000
  312       -3.393567   1.000000
  313       -3.371813   1.000000
  314       -3.358546   1.000000
  315       -3.345127   1.000000
  316       -3.337590   1.000000
  317       -3.335570   1.000000
  318       -3.333561   1.000000
  319       -3.332949   1.000000
  320       -3.329313   1.000000
  321       -3.322702   1.000000
  322       -3.321901   1.000000
  323       -3.305917   1.000000
  324       -3.304432   1.000000
  325       -3.303371   1.000000
  326       -3.301835   1.000000
  327       -3.299378   1.000000
  328       -3.298296   1.000000
  329       -3.298169   1.000000
  330       -3.294411   1.000000
  331       -3.293603   1.000000
  332       -3.293356   1.000000
  333       -3.291666   1.000000
  334       -3.290392   1.000000
  335       -3.288576   1.000000
  336       -3.287393   1.000000
  337       -3.287296   1.000000
  338       -3.285257   1.000000
  339       -3.285210   1.000000
  340       -3.284590   1.000000
  341       -3.265739   1.000000
  342       -3.227237   1.000000
  343       -3.216094   1.000000
  344       -3.203817   1.000000
  345       -3.194225   1.000000
  346       -3.188704   1.000000
  347       -3.175512   1.000000
  348       -3.173293   1.000000
  349       -3.171858   1.000000
  350       -3.155663   1.000000
  351       -3.154654   1.000000
  352       -3.152978   1.000000
  353       -3.147397   1.000000
  354       -3.145767   1.000000
  355       -3.145521   1.000000
  356       -3.140611   1.000000
  357       -3.136729   1.000000
  358       -3.131599   1.000000
  359       -3.130812   1.000000
  360       -3.121567   1.000000
  361       -3.120228   1.000000
  362       -3.120166   1.000000
  363       -3.116478   1.000000
  364       -3.113578   1.000000
  365       -3.113045   1.000000
  366       -3.108251   1.000000
  367       -3.079094   1.000000
  368       -3.071072   1.000000
  369       -3.065610   1.000000
  370       -3.064690   1.000000
  371       -3.062933   1.000000
  372       -3.056119   1.000000
  373       -3.046777   1.000000
  374       -3.034465   1.000000
  375       -3.031561   1.000000
  376       -3.030288   1.000000
  377       -3.026445   1.000000
  378       -3.023479   1.000000
  379       -3.023230   1.000000
  380       -3.023116   1.000000
  381       -3.022824   1.000000
  382       -3.022300   1.000000
  383       -3.021820   1.000000
  384       -3.021583   1.000000
  385       -3.015341   1.000000
  386       -2.992466   1.000000
  387       -2.985785   1.000000
  388       -2.981973   1.000000
  389       -2.980540   1.000000
  390       -2.979899   1.000000
  391       -2.977115   1.000000
  392       -2.975534   1.000000
  393       -2.973316   1.000000
  394       -2.971288   1.000000
  395       -2.970656   1.000000
  396       -2.968635   1.000000
  397       -2.964696   1.000000
  398       -2.932946   1.000000
  399       -2.922386   1.000000
  400       -2.921030   1.000000
  401       -2.917920   1.000000
  402       -2.916364   1.000000
  403       -2.915246   1.000000
  404       -2.914313   1.000000
  405       -2.883790   1.000000
  406       -2.872659   1.000000
  407       -2.868454   1.000000
  408       -2.861388   1.000000
  409       -2.858767   1.000000
  410       -2.853827   1.000000
  411       -2.850332   1.000000
  412       -2.848898   1.000000
  413       -2.847720   1.000000
  414       -2.847339   1.000000
  415       -2.844202   1.000000
  416       -2.842729   1.000000
  417       -2.833428   1.000000
  418       -2.832765   1.000000
  419       -2.831275   1.000000
  420       -2.821917   1.000000
  421       -2.820900   1.000000
  422       -2.820079   1.000000
  423       -2.819755   1.000000
  424       -2.819197   1.000000
  425       -2.818018   1.000000
  426       -2.817344   1.000000
  427       -2.814272   1.000000
  428       -2.809407   1.000000
  429       -2.804447   1.000000
  430       -2.802508   1.000000
  431       -2.796802   1.000000
  432       -2.793959   1.000000
  433       -2.792635   1.000000
  434       -2.791984   1.000000
  435       -2.791541   1.000000
  436       -2.789718   1.000000
  437       -2.787532   1.000000
  438       -2.786211   1.000000
  439       -2.786074   1.000000
  440       -2.785871   1.000000
  441       -2.785718   1.000000
  442       -2.785485   1.000000
  443       -2.784660   1.000000
  444       -2.784051   1.000000
  445       -2.762944   1.000000
  446       -2.757388   1.000000
  447       -2.741595   1.000000
  448       -2.737782   1.000000
  449       -2.732562   1.000000
  450       -2.726342   1.000000
  451       -2.725955   1.000000
  452       -2.719666   1.000000
  453       -2.717671   1.000000
  454       -2.715208   1.000000
  455       -2.715064   1.000000
  456       -2.713876   1.000000
  457       -2.712767   1.000000
  458       -2.712515   1.000000
  459       -2.712395   1.000000
  460       -2.712344   1.000000
  461       -2.712047   1.000000
  462       -2.711737   1.000000
  463       -2.711353   1.000000
  464       -2.709189   1.000000
  465       -2.708605   1.000000
  466       -2.699381   1.000000
  467       -2.698151   1.000000
  468       -2.687884   1.000000
  469       -2.674824   1.000000
  470       -2.673809   1.000000
  471       -2.671306   1.000000
  472       -2.664690   1.000000
  473       -2.662384   1.000000
  474       -2.650994   1.000000
  475       -2.633299   1.000000
  476       -2.629754   1.000000
  477       -2.625611   1.000000
  478       -2.625470   1.000000
  479       -2.622772   1.000000
  480       -2.621277   1.000000
  481       -2.620669   1.000000
  482       -2.619738   1.000000
  483       -2.619521   1.000000
  484       -2.617987   1.000000
  485       -2.617948   1.000000
  486       -2.617224   1.000000
  487       -2.617119   1.000000
  488       -2.615893   1.000000
  489       -2.615862   1.000000
  490       -2.615162   1.000000
  491       -2.614497   1.000000
  492       -2.613524   1.000000
  493       -2.613152   1.000000
  494       -2.611599   1.000000
  495       -2.611179   1.000000
  496       -2.611020   1.000000
  497       -2.610163   1.000000
  498       -2.609519   1.000000
  499       -2.609390   1.000000
  500       -2.607783   1.000000
  501       -2.604789   1.000000
  502       -2.597133   1.000000
  503       -2.583470   1.000000
  504       -2.582445   1.000000
  505       -2.569387   1.000000
  506       -2.567135   1.000000
  507       -2.560280   1.000000
  508       -2.555235   1.000000
  509       -2.554136   1.000000
  510       -2.553515   1.000000
  511       -2.552394   1.000000
  512       -2.551835   1.000000
  513       -2.550248   1.000000
  514       -2.549912   1.000000
  515       -2.549770   1.000000
  516       -2.548405   1.000000
  517       -2.546077   1.000000
  518       -2.537221   1.000000
  519       -2.525792   1.000000
  520       -2.525252   1.000000
  521       -2.519337   1.000000
  522       -2.519050   1.000000
  523       -2.515243   1.000000
  524       -2.498911   1.000000
  525       -2.485171   1.000000
  526       -2.475979   1.000000
  527       -2.475100   1.000000
  528       -2.469106   1.000000
  529       -2.463135   1.000000
  530       -2.460859   1.000000
  531       -2.457346   1.000000
  532       -2.455954   1.000000
  533       -2.453593   1.000000
  534       -2.452853   1.000000
  535       -2.452278   1.000000
  536       -2.450651   1.000000
  537       -2.450279   1.000000
  538       -2.449695   1.000000
  539       -2.448207   1.000000
  540       -2.447748   1.000000
  541       -2.446246   1.000000
  542       -2.443181   1.000000
  543       -2.437462   1.000000
  544       -2.422019   1.000000
  545       -2.414133   1.000000
  546       -2.412039   1.000000
  547       -2.405098   1.000000
  548       -2.402755   1.000000
  549       -2.400367   1.000000
  550       -2.398222   1.000000
  551       -2.394536   1.000000
  552       -2.393581   1.000000
  553       -2.392002   1.000000
  554       -2.391937   1.000000
  555       -2.390196   1.000000
  556       -2.386891   1.000000
  557       -2.384983   1.000000
  558       -2.384195   1.000000
  559       -2.382453   1.000000
  560       -2.381467   1.000000
  561       -2.380131   1.000000
  562       -2.378971   1.000000
  563       -2.378914   1.000000
  564       -2.378560   1.000000
  565       -2.377534   1.000000
  566       -2.376055   1.000000
  567       -2.375931   1.000000
  568       -2.374717   1.000000
  569       -2.371980   1.000000
  570       -2.369224   1.000000
  571       -2.369138   1.000000
  572       -2.368282   1.000000
  573       -2.368242   1.000000
  574       -2.350743   1.000000
  575       -2.342552   1.000000
  576       -2.340049   1.000000
  577       -2.335794   1.000000
  578       -2.328162   1.000000
  579       -2.327069   1.000000
  580       -2.321613   1.000000
  581       -2.317052   1.000000
  582       -2.316197   1.000000
  583       -2.315253   1.000000
  584       -2.314779   1.000000
  585       -2.312439   1.000000
  586       -2.312120   1.000000
  587       -2.307434   1.000000
  588       -2.305308   1.000000
  589       -2.298461   1.000000
  590       -2.294961   1.000000
  591       -2.287669   1.000000
  592       -2.284469   1.000000
  593       -2.282751   1.000000
  594       -2.280810   1.000000
  595       -2.277050   1.000000
  596       -2.276978   1.000000
  597       -2.275727   1.000000
  598       -2.266947   1.000000
  599       -2.264731   1.000000
  600       -2.264422   1.000000
  601       -2.263142   1.000000
  602       -2.262915   1.000000
  603       -2.262200   1.000000
  604       -2.261038   1.000000
  605       -2.259177   1.000000
  606       -2.256933   1.000000
  607       -2.253389   1.000000
  608       -2.250256   1.000000
  609       -2.243979   1.000000
  610       -2.243970   1.000000
  611       -2.243182   1.000000
  612       -2.242325   1.000000
  613       -2.241066   1.000000
  614       -2.239383   1.000000
  615       -2.238070   1.000000
  616       -2.232849   1.000000
  617       -2.230412   1.000000
  618       -2.223305   1.000000
  619       -2.219257   1.000000
  620       -2.207796   1.000000
  621       -2.206748   1.000000
  622       -2.203737   1.000000
  623       -2.199648   1.000000
  624       -2.195709   1.000000
  625       -2.190428   1.000000
  626       -2.190049   1.000000
  627       -2.183297   1.000000
  628       -2.181750   1.000000
  629       -2.174657   1.000000
  630       -2.174373   1.000000
  631       -2.169213   1.000000
  632       -2.168353   1.000000
  633       -2.168169   1.000000
  634       -2.168125   1.000000
  635       -2.167021   1.000000
  636       -2.166231   1.000000
  637       -2.155265   1.000000
  638       -2.149619   1.000000
  639       -2.149481   1.000000
  640       -2.147421   1.000000
  641       -2.146734   1.000000
  642       -2.144633   1.000000
  643       -2.144063   1.000000
  644       -2.143730   1.000000
  645       -2.138298   1.000000
  646       -2.137389   1.000000
  647       -2.136010   1.000000
  648       -2.133341   1.000000
  649       -2.130429   1.000000
  650       -2.128698   1.000000
  651       -2.124978   1.000000
  652       -2.121718   1.000000
  653       -2.121219   1.000000
  654       -2.121131   1.000000
  655       -2.121030   1.000000
  656       -2.120494   1.000000
  657       -2.118735   1.000000
  658       -2.118677   1.000000
  659       -2.117201   1.000000
  660       -2.116529   1.000000
  661       -2.116194   1.000000
  662       -2.115336   1.000000
  663       -2.112797   1.000000
  664       -2.110088   1.000000
  665       -2.109725   1.000000
  666       -2.107958   1.000000
  667       -2.107570   1.000000
  668       -2.106974   1.000000
  669       -2.105591   1.000000
  670       -2.105521   1.000000
  671       -2.103420   1.000000
  672       -2.100577   1.000000
  673       -2.097813   1.000000
  674       -2.083220   1.000000
  675       -2.072546   1.000000
  676       -2.072474   1.000000
  677       -2.069427   1.000000
  678       -2.060041   1.000000
  679       -2.055477   1.000000
  680       -2.055299   1.000000
  681       -2.052452   1.000000
  682       -2.051455   1.000000
  683       -2.047270   1.000000
  684       -2.041062   1.000000
  685       -2.039157   1.000000
  686       -2.036591   1.000000
  687       -2.033650   1.000000
  688       -2.032143   1.000000
  689       -2.031582   1.000000
  690       -2.024837   1.000000
  691       -2.020544   1.000000
  692       -2.016587   1.000000
  693       -2.012015   1.000000
  694       -2.011561   1.000000
  695       -2.010069   1.000000
  696       -2.009130   1.000000
  697       -2.009073   1.000000
  698       -2.008408   1.000000
  699       -2.006935   1.000000
  700       -2.005585   1.000000
  701       -2.005137   1.000000
  702       -2.004014   1.000000
  703       -2.003951   1.000000
  704       -1.997550   1.000000
  705       -1.996052   1.000000
  706       -1.994502   1.000000
  707       -1.993910   1.000000
  708       -1.992709   1.000000
  709       -1.991951   1.000000
  710       -1.991223   1.000000
  711       -1.990940   1.000000
  712       -1.989365   1.000000
  713       -1.988680   1.000000
  714       -1.988596   1.000000
  715       -1.988128   1.000000
  716       -1.987153   1.000000
  717       -1.986898   1.000000
  718       -1.976933   1.000000
  719       -1.968074   1.000000
  720       -1.967120   1.000000
  721       -1.964493   1.000000
  722       -1.963751   1.000000
  723       -1.963210   1.000000
  724       -1.963105   1.000000
  725       -1.961628   1.000000
  726       -1.955485   1.000000
  727       -1.953516   1.000000
  728       -1.945144   1.000000
  729       -1.942712   1.000000
  730       -1.939609   1.000000
  731       -1.937334   1.000000
  732       -1.937003   1.000000
  733       -1.936584   1.000000
  734       -1.928737   1.000000
  735       -1.922434   1.000000
  736       -1.922071   1.000000
  737       -1.920019   1.000000
  738       -1.919886   1.000000
  739       -1.919223   1.000000
  740       -1.917928   1.000000
  741       -1.917855   1.000000
  742       -1.912450   1.000000
  743       -1.901896   1.000000
  744       -1.889832   1.000000
  745       -1.885199   1.000000
  746       -1.879943   1.000000
  747       -1.879663   1.000000
  748       -1.875920   1.000000
  749       -1.875175   1.000000
  750       -1.874571   1.000000
  751       -1.872875   1.000000
  752       -1.869710   1.000000
  753       -1.868737   1.000000
  754       -1.867189   1.000000
  755       -1.865970   1.000000
  756       -1.863361   1.000000
  757       -1.862175   1.000000
  758       -1.855952   1.000000
  759       -1.839730   1.000000
  760       -1.838689   1.000000
  761       -1.836192   1.000000
  762       -1.830770   1.000000
  763       -1.824681   1.000000
  764       -1.822431   1.000000
  765       -1.819676   1.000000
  766       -1.819047   1.000000
  767       -1.818462   1.000000
  768       -1.817556   1.000000
  769       -1.816155   1.000000
  770       -1.815348   1.000000
  771       -1.812943   1.000000
  772       -1.812061   1.000000
  773       -1.811396   1.000000
  774       -1.810569   1.000000
  775       -1.810332   1.000000
  776       -1.810263   1.000000
  777       -1.809453   1.000000
  778       -1.806482   1.000000
  779       -1.802251   1.000000
  780       -1.801732   1.000000
  781       -1.795627   1.000000
  782       -1.793068   1.000000
  783       -1.784482   1.000000
  784       -1.784130   1.000000
  785       -1.776326   1.000000
  786       -1.776013   1.000000
  787       -1.774329   1.000000
  788       -1.772360   1.000000
  789       -1.772042   1.000000
  790       -1.771501   1.000000
  791       -1.770625   1.000000
  792       -1.770334   1.000000
  793       -1.769252   1.000000
  794       -1.766228   1.000000
  795       -1.762158   1.000000
  796       -1.758770   1.000000
  797       -1.754465   1.000000
  798       -1.749654   1.000000
  799       -1.748872   1.000000
  800       -1.744960   1.000000
  801       -1.743823   1.000000
  802       -1.739263   1.000000
  803       -1.736734   1.000000
  804       -1.734156   1.000000
  805       -1.733771   1.000000
  806       -1.729943   1.000000
  807       -1.729829   1.000000
  808       -1.726867   1.000000
  809       -1.726055   1.000000
  810       -1.724123   1.000000
  811       -1.722368   1.000000
  812       -1.721203   1.000000
  813       -1.719530   1.000000
  814       -1.719195   1.000000
  815       -1.715106   1.000000
  816       -1.706911   1.000000
  817       -1.703470   1.000000
  818       -1.702147   1.000000
  819       -1.699532   1.000000
  820       -1.696175   1.000000
  821       -1.694448   1.000000
  822       -1.692124   1.000000
  823       -1.690661   1.000000
  824       -1.684560   1.000000
  825       -1.682339   1.000000
  826       -1.681586   1.000000
  827       -1.681402   1.000000
  828       -1.679774   1.000000
  829       -1.678227   1.000000
  830       -1.668032   1.000000
  831       -1.666962   1.000000
  832       -1.656733   1.000000
  833       -1.655355   1.000000
  834       -1.654541   1.000000
  835       -1.652191   1.000000
  836       -1.651267   1.000000
  837       -1.649476   1.000000
  838       -1.647236   1.000000
  839       -1.645583   1.000000
  840       -1.644391   1.000000
  841       -1.643657   1.000000
  842       -1.643454   1.000000
  843       -1.642442   1.000000
  844       -1.639083   1.000000
  845       -1.637791   1.000000
  846       -1.634631   1.000000
  847       -1.634128   1.000000
  848       -1.633066   1.000000
  849       -1.632448   1.000000
  850       -1.631911   1.000000
  851       -1.631148   1.000000
  852       -1.629257   1.000000
  853       -1.627676   1.000000
  854       -1.626355   1.000000
  855       -1.625578   1.000000
  856       -1.624783   1.000000
  857       -1.621232   1.000000
  858       -1.620922   1.000000
  859       -1.619210   1.000000
  860       -1.615764   1.000000
  861       -1.604666   1.000000
  862       -1.602956   1.000000
  863       -1.601339   1.000000
  864       -1.584650   1.000000
  865       -1.575782   1.000000
  866       -1.574100   1.000000
  867       -1.572140   1.000000
  868       -1.568630   1.000000
  869       -1.566102   1.000000
  870       -1.561585   1.000000
  871       -1.559168   1.000000
  872       -1.542667   1.000000
  873       -1.541057   1.000000
  874       -1.539282   1.000000
  875       -1.538421   1.000000
  876       -1.538073   1.000000
  877       -1.535747   1.000000
  878       -1.534508   1.000000
  879       -1.532414   1.000000
  880       -1.531828   1.000000
  881       -1.531308   1.000000
  882       -1.529455   1.000000
  883       -1.527964   1.000000
  884       -1.521653   1.000000
  885       -1.513451   1.000000
  886       -1.512481   1.000000
  887       -1.510984   1.000000
  888       -1.490602   1.000000
  889       -1.489423   1.000000
  890       -1.469470   1.000000
  891       -1.467598   1.000000
  892       -1.465891   1.000000
  893       -1.460561   1.000000
  894       -1.460333   1.000000
  895       -1.458722   1.000000
  896       -1.453169   1.000000
  897       -1.432123   1.000000
  898       -1.429867   1.000000
  899       -1.421700   1.000000
  900       -1.419215   1.000000
  901       -1.412789   1.000000