 vasp.6.2.1 16May21 (build Jun 16 2021 03:23:30) complex                         
 executed on             LinuxPGI date 2022.04.25  11:32:55
 running on    1 total cores
 distrk:  each k-point on    1 cores,    1 groups
 distr:  one band on NCORE=   1 cores,    1 groups


--------------------------------------------------------------------------------------------------------


 INCAR:
   SYSTEM = NiAl
   ISTART = 0
   EDIFF = 5E-6
   NELMIN = 6
   NELM = 250
   IVDW = 12
   LWAVE = .FALSE.
   LCHARG = .FALSE.
   LREAL = Auto
   NCORE = 1
   LPLANE = .TRUE.
   ENCUT = 360.00 eV
   ISMEAR = 0
   SIGMA = 0.05

 POTCAR:    PAW Ni_GW 31Mar2010                   
 POTCAR:    PAW O_GW 19Mar2012                    
 POTCAR:    PAW Ni_GW 31Mar2010                   
   VRHFIN =Ni:                                                                                      
   LEXCH  = PE                                                                                      
   EATOM  =  1077.6740 eV,   79.2068 Ry                                                             
                                                                                                    
   TITEL  = PAW Ni_GW 31Mar2010                                                                     
   LULTRA =        F    use ultrasoft PP ?                                                          
   IUNSCR =        1    unscreen: 0-lin 1-nonlin 2-no                                               
   RPACOR =    1.800    partial core radius                                                         
   POMASS =   58.690; ZVAL   =   10.000    mass and valenz                                          
   RCORE  =    2.300    outmost cutoff radius                                                       
   RWIGS  =    2.430; RWIGS  =    1.286    wigner-seitz radius (au A)                               
   ENMAX  =  357.323; ENMIN  =  267.992 eV                                                          
   RCLOC  =    1.681    cutoff for local pot                                                        
   LCOR   =        T    correct aug charges                                                         
   LPAW   =        T    paw PP                                                                      
   EAUG   =  802.310                                                                                
   DEXC   =    0.000                                                                                
   RMAX   =    2.357    core radius for proj-oper                                                   
   RAUG   =    1.300    factor for augmentation sphere                                              
   RDEP   =    2.390    radius for radial grids                                                     
   RDEPT  =    1.800    core radius for aug-charge                                                  
                                                                                                    
   Atomic configuration                                                                             
    9 entries                                                                                       
     n  l   j            E        occ.                                                              
     1  0  0.50     -8206.4253   2.0000                                                             
     2  0  0.50      -976.1748   2.0000                                                             
     2  1  1.50      -839.0571   6.0000                                                             
     3  0  0.50      -105.9991   2.0000                                                             
     3  1  1.50       -66.4603   6.0000                                                             
     3  2  2.50        -4.6458   9.0000                                                             
     4  0  0.50        -4.4926   1.0000                                                             
     4  1  1.50        -4.0817   0.0000                                                             
     4  3  2.50        -1.3606   0.0000                                                             
   Description                                                                                      
     l       E           TYP  RCUT    TYP  RCUT                                                     
     2     -4.6457935     23  2.000                                                                 
     2     -6.0063761     23  2.000                                                                 
     0     -4.4925599     23  2.300                                                                 
     0     54.4233040     23  2.300                                                                 
     1     -2.7211652     23  2.300                                                                 
     1     68.0291300     23  2.300                                                                 
     3     27.2116520     23  2.000                                                                 
  local pseudopotential read in
  partial core-charges read in
  partial kinetic energy density read in
  kinetic energy density of atom read in
  atomic valenz-charges read in
  non local Contribution for L=            2  read in
    real space projection operators read in
  non local Contribution for L=            2  read in
    real space projection operators read in
  non local Contribution for L=            0  read in
    real space projection operators read in
  non local Contribution for L=            0  read in
    real space projection operators read in
  non local Contribution for L=            1  read in
    real space projection operators read in
  non local Contribution for L=            1  read in
    real space projection operators read in
  non local Contribution for L=            3  read in
    real space projection operators read in
    PAW grid and wavefunctions read in
 
   number of l-projection  operators is LMAX  =            7
   number of lm-projection operators is LMMAX =           25
 
 POTCAR:    PAW O_GW 19Mar2012                    
   VRHFIN =O: s2p4                                                                                  
   LEXCH  = PE                                                                                      
   EATOM  =   432.3788 eV,   31.7789 Ry                                                             
                                                                                                    
   TITEL  = PAW O_GW 19Mar2012                                                                      
   LULTRA =        F    use ultrasoft PP ?                                                          
   IUNSCR =        1    unscreen: 0-lin 1-nonlin 2-no                                               
   RPACOR =    0.800    partial core radius                                                         
   POMASS =   16.000; ZVAL   =    6.000    mass and valenz                                          
   RCORE  =    1.600    outmost cutoff radius                                                       
   RWIGS  =    1.600; RWIGS  =    0.847    wigner-seitz radius (au A)                               
   ENMAX  =  434.431; ENMIN  =  325.824 eV                                                          
   ICORE  =        3    local potential                                                             
   LCOR   =        T    correct aug charges                                                         
   LPAW   =        T    paw PP                                                                      
   EAUG   = 1139.609                                                                                
   DEXC   =    0.000                                                                                
   RMAX   =    1.629    core radius for proj-oper                                                   
   RAUG   =    1.300    factor for augmentation sphere                                              
   RDEP   =    1.652    radius for radial grids                                                     
   RDEPT  =    1.200    core radius for aug-charge                                                  
                                                                                                    
   Atomic configuration                                                                             
    5 entries                                                                                       
     n  l   j            E        occ.                                                              
     1  0  0.50      -514.6923   2.0000                                                             
     2  0  0.50       -23.9615   2.0000                                                             
     2  1  0.50        -9.0305   4.0000                                                             
     3  2  1.50        -9.5241   0.0000                                                             
     4  3  2.50        -9.5241   0.0000                                                             
   Description                                                                                      
     l       E           TYP  RCUT    TYP  RCUT                                                     
     0    -23.9615316     23  1.150                                                                 
     0    -25.3221142     23  1.150                                                                 
     0    244.9048680     23  1.300                                                                 
     1     -9.0304908     23  1.500                                                                 
     1     -6.9258396     23  1.500                                                                 
     1    122.4524340     23  1.500                                                                 
     2     13.6058260     23  1.500                                                                 
     2    190.4815640     23  1.600                                                                 
     3     54.4233040     23  1.400                                                                 
  local pseudopotential read in
  partial core-charges read in
  partial kinetic energy density read in
  kinetic energy density of atom read in
  atomic valenz-charges read in
  non local Contribution for L=            0  read in
    real space projection operators read in
  non local Contribution for L=            0  read in
    real space projection operators read in
  non local Contribution for L=            0  read in
    real space projection operators read in
  non local Contribution for L=            1  read in
    real space projection operators read in
  non local Contribution for L=            1  read in
    real space projection operators read in
  non local Contribution for L=            1  read in
    real space projection operators read in
  non local Contribution for L=            2  read in
    real space projection operators read in
  non local Contribution for L=            2  read in
    real space projection operators read in
    PAW grid and wavefunctions read in
 
   number of l-projection  operators is LMAX  =            8
   number of lm-projection operators is LMMAX =           22
 
 Optimization of the real space projectors (new method)

 maximal supplied QI-value         = 16.25
 optimisation between [QCUT,QGAM] = [  9.59, 19.34] = [ 25.75,104.73] Ry 
 Optimized for a Real-space Cutoff    1.46 Angstroem

   l    n(q)    QCUT    max X(q) W(low)/X(q) W(high)/X(q)  e(spline) 
   2      7     9.588    94.285    0.33E-03    0.50E-03    0.16E-06
   2      7     9.588    92.549    0.33E-03    0.50E-03    0.16E-06
   0      8     9.588    17.118    0.28E-04    0.17E-03    0.57E-07
   0      8     9.588     8.062    0.24E-04    0.17E-03    0.61E-07
   1      8     9.588     4.910    0.48E-03    0.22E-03    0.79E-07
   1      8     9.588     3.344    0.32E-03    0.14E-03    0.56E-07
   3      7     9.588     5.513    0.55E-04    0.16E-03    0.12E-06
 Optimization of the real space projectors (new method)

 maximal supplied QI-value         = 23.62
 optimisation between [QCUT,QGAM] = [  9.68, 19.37] = [ 26.27,105.06] Ry 
 Optimized for a Real-space Cutoff    2.14 Angstroem

   l    n(q)    QCUT    max X(q) W(low)/X(q) W(high)/X(q)  e(spline) 
   0     13     9.685   116.464    0.15E-03    0.15E-03    0.47E-05
   0     13     9.685   116.329    0.15E-03    0.15E-03    0.46E-05
   0     13     9.685     0.942    0.20E-04    0.50E-04    0.17E-05
   1     12     9.685    29.046    0.36E-03    0.11E-02    0.25E-04
   1     12     9.685    24.247    0.38E-03    0.11E-02    0.26E-04
   1     12     9.685     2.381    0.13E-03    0.38E-03    0.78E-05
   2     12     9.685     2.237    0.60E-05    0.28E-04    0.14E-05
   2     12     9.685     1.850    0.17E-04    0.70E-04    0.25E-05
  PAW Ni_GW 31Mar2010                   :
 energy of atom  1       EATOM=-1077.6740
 kinetic energy error for atom=    0.0556 (will be added to EATOM!!)
  PAW O_GW 19Mar2012                    :
 energy of atom  2       EATOM= -432.3788
 kinetic energy error for atom=    0.3913 (will be added to EATOM!!)
 
 
 POSCAR: New structure
  positions in cartesian coordinates
  No initial velocities read in
 exchange correlation table for  LEXCH =        8
   RHO(1)=    0.500       N(1)  =     2000
   RHO(2)=  100.500       N(2)  =     4000

 VTST: version 4.1, (05/19/21)

 CHAIN: initializing optimizer
 
 OPT: Using VASP Dynamics algorithm
 CHAIN: Read ICHAIN             0
 
 POSCAR: New structure
  positions in cartesian coordinates
  No initial velocities read in
 


--------------------------------------------------------------------------------------------------------


 ion  position               nearest neighbor table
   1  0.444  0.444  0.104-  73 2.47 199 2.47 136 2.47 190 2.52  65 2.52 127 2.52 130 2.52  67 2.52
                           191 2.52
   2  0.444  0.778  0.104-  74 2.47 200 2.47 137 2.47 191 2.52  66 2.52 131 2.52 128 2.52 192 2.52
                            68 2.52
   3  0.444  0.111  0.104- 138 2.47  75 2.47 201 2.47  64 2.52 190 2.52 132 2.52 129 2.52 192 2.52
                            69 2.52
   4  0.778  0.444  0.104-  76 2.47 202 2.47 139 2.47 193 2.52  68 2.52 130 2.52 133 2.52  70 2.52
                           194 2.52
   5  0.778  0.778  0.104-  77 2.47 203 2.47 140 2.47 194 2.52  69 2.52 134 2.52 131 2.52 195 2.52
                            71 2.52
   6  0.778  0.111  0.104- 141 2.47  78 2.47 204 2.47  67 2.52 193 2.52 135 2.52 132 2.52 195 2.52
                            72 2.52
   7  0.111  0.444  0.104-  79 2.47 205 2.47 142 2.47 196 2.52  71 2.52 127 2.52 133 2.52  64 2.52
                           197 2.52
   8  0.111  0.778  0.104-  80 2.47 206 2.47 143 2.47 197 2.52  72 2.52 128 2.52 134 2.52 198 2.52
                            65 2.52
   9  0.111  0.111  0.104- 144 2.47  81 2.47 207 2.47  70 2.52 196 2.52 129 2.52 198 2.52 135 2.52
                            66 2.52
  10  0.556  0.556  0.173- 191 2.47  68 2.47 130 2.47  82 2.48 208 2.48 145 2.48  74 2.52 199 2.52
                           139 2.52 136 2.52 200 2.52  76 2.52
  11  0.556  0.889  0.173- 192 2.47  69 2.47 131 2.47 146 2.48  83 2.48 209 2.48  75 2.52 201 2.52
                           200 2.52 137 2.52 140 2.52  77 2.52
  12  0.556  0.222  0.173- 190 2.47 132 2.47  67 2.47  84 2.48 210 2.48 147 2.48 201 2.52  73 2.52
                           138 2.52 141 2.52 199 2.52  78 2.52
  13  0.889  0.556  0.173- 194 2.47  71 2.47 133 2.47  85 2.48 148 2.48 211 2.48  77 2.52 202 2.52
                           139 2.52 142 2.52 203 2.52  79 2.52
  14  0.889  0.889  0.173- 195 2.47  72 2.47 134 2.47 149 2.48  86 2.48 212 2.48  78 2.52 204 2.52
                           203 2.52 140 2.52 143 2.52  80 2.52
  15  0.889  0.222  0.173- 193 2.47 135 2.47  70 2.47  87 2.48 150 2.48 213 2.48 204 2.52  76 2.52
                           141 2.52 144 2.52 202 2.52  81 2.52
  16  0.222  0.556  0.173- 197 2.47  65 2.47 127 2.47  88 2.48 214 2.48 151 2.48  80 2.52 205 2.52
                           136 2.52 142 2.52 206 2.52  73 2.52
  17  0.222  0.889  0.173- 198 2.47  66 2.47 128 2.47 152 2.48  89 2.48 215 2.48  81 2.52 207 2.52
                           206 2.52 143 2.52 137 2.52  74 2.52
  18  0.222  0.222  0.173- 196 2.47 129 2.47  64 2.47  90 2.48 216 2.48 153 2.48 207 2.52  79 2.52
                           144 2.52 138 2.52 205 2.52  75 2.52
  19  0.667  0.667  0.242- 154 2.48  91 2.48 217 2.48 200 2.48  77 2.48 139 2.48  83 2.52 209 2.52
                           208 2.52 145 2.52 148 2.52  85 2.52
  20  0.667  0.000  0.242-  92 2.48 218 2.48 155 2.48 201 2.48 140 2.48  78 2.48  84 2.52 146 2.52
                           149 2.52 209 2.52 210 2.52  86 2.52
  21  0.667  0.333  0.242- 156 2.48  93 2.48 219 2.48 199 2.48  76 2.48 141 2.48 210 2.52  82 2.52
                           150 2.52 147 2.52  87 2.52 208 2.52
  22  1.000  0.667  0.242- 157 2.48  94 2.48 220 2.48 203 2.48  80 2.48 142 2.48  86 2.52 212 2.52
                           211 2.52 151 2.52 148 2.52  88 2.52
  23  0.000  0.000  0.242-  95 2.48 221 2.48 158 2.48 204 2.48 143 2.48  81 2.48  87 2.52 152 2.52
                           212 2.52 149 2.52 213 2.52  89 2.52
  24  1.000  0.333  0.242- 159 2.48  96 2.48 222 2.48 202 2.48  79 2.48 144 2.48 213 2.52  85 2.52
                           153 2.52 150 2.52  90 2.52 211 2.52
  25  0.333  0.667  0.242- 160 2.48  97 2.48 223 2.48 206 2.48  74 2.48 136 2.48  89 2.52 215 2.52
                           214 2.52 151 2.52 145 2.52  82 2.52
  26  0.333  0.000  0.242-  98 2.48 224 2.48 161 2.48 207 2.48 137 2.48  75 2.48  90 2.52 152 2.52
                           146 2.52 215 2.52 216 2.52  83 2.52
  27  0.333  0.333  0.242- 162 2.48  99 2.48 225 2.48 205 2.48  73 2.48 138 2.48 216 2.52  88 2.52
                           147 2.52 153 2.52  84 2.52 214 2.52
  28  0.778  0.778  0.312- 209 2.48 100 2.48 148 2.48  86 2.48 226 2.48 163 2.48 217 2.52  92 2.52
                           157 2.52 154 2.52 218 2.52  94 2.52
  29  0.778  0.111  0.312- 210 2.48 164 2.48 101 2.48  87 2.48 149 2.48 227 2.48  93 2.52 219 2.52
                           155 2.52 158 2.52 218 2.52  95 2.52
  30  0.778  0.444  0.312- 102 2.48 150 2.48 208 2.48 228 2.48 165 2.48  85 2.48 219 2.52  91 2.52
                           156 2.52 159 2.52  96 2.52 217 2.52
  31  0.111  0.778  0.312- 212 2.48 103 2.48 151 2.48  89 2.48 229 2.48 166 2.48 220 2.52  95 2.52
                           160 2.52 157 2.52 221 2.52  97 2.52
  32  0.111  0.111  0.312- 213 2.48 167 2.48 104 2.48  90 2.48 152 2.48 230 2.48  96 2.52 222 2.52
                           161 2.52 221 2.52 158 2.52  98 2.52
  33  0.111  0.444  0.312- 105 2.48 153 2.48 211 2.48 231 2.48 168 2.48  88 2.48 222 2.52  94 2.52
                           162 2.52 159 2.52  99 2.52 220 2.52
  34  0.444  0.778  0.312- 215 2.48 106 2.48 145 2.48  83 2.48 232 2.48 169 2.48 223 2.52  98 2.52
                           154 2.52 160 2.52 224 2.52  91 2.52
  35  0.444  0.111  0.312- 216 2.48 170 2.48 107 2.48  84 2.48 146 2.48 233 2.48  99 2.52 225 2.52
                           155 2.52 161 2.52 224 2.52  92 2.52
  36  0.444  0.444  0.312- 108 2.48 147 2.48 214 2.48 234 2.48 171 2.48  82 2.48 225 2.52  97 2.52
                           162 2.52 156 2.52  93 2.52 223 2.52
  37  0.889  0.889  0.381- 218 2.48  95 2.48 157 2.48 172 2.48 109 2.48 235 2.48 101 2.52 227 2.52
                           226 2.52 163 2.52 166 2.52 103 2.52
  38  0.889  0.222  0.381- 219 2.48 158 2.48  96 2.48 110 2.48 173 2.48 236 2.48 227 2.52 102 2.52
                           164 2.52 167 2.52 228 2.52 104 2.52
  39  0.889  0.556  0.381- 217 2.48  94 2.48 159 2.48 111 2.48 174 2.48 237 2.48 100 2.52 228 2.52
                           165 2.52 168 2.52 226 2.52 105 2.52
  40  0.222  0.889  0.381- 221 2.48  98 2.48 160 2.48 175 2.48 112 2.48 238 2.48 104 2.52 230 2.52
                           229 2.52 169 2.52 166 2.52 106 2.52
  41  0.222  0.222  0.381- 222 2.48 161 2.48  99 2.48 113 2.48 239 2.48 176 2.48 230 2.52 105 2.52
                           167 2.52 170 2.52 231 2.52 107 2.52
  42  0.222  0.556  0.381- 220 2.48  97 2.48 162 2.48 114 2.48 240 2.48 177 2.48 103 2.52 231 2.52
                           171 2.52 168 2.52 229 2.52 108 2.52
  43  0.556  0.889  0.381- 224 2.48  92 2.48 154 2.48 178 2.48 115 2.48 241 2.48 107 2.52 233 2.52
                           232 2.52 169 2.52 163 2.52 100 2.52
  44  0.556  0.222  0.381- 225 2.48 155 2.48  93 2.48 116 2.48 242 2.48 179 2.48 233 2.52 108 2.52
                           170 2.52 164 2.52 234 2.52 101 2.52
  45  0.556  0.556  0.381- 223 2.48  91 2.48 156 2.48 117 2.48 243 2.48 180 2.48 106 2.52 234 2.52
                           165 2.52 171 2.52 232 2.52 102 2.52
  46  0.000  0.000  0.450- 118 2.47 244 2.47 181 2.47 227 2.48 166 2.48 104 2.48 110 2.52 175 2.52
                           235 2.52 172 2.52 236 2.52 112 2.52
  47  1.000  0.333  0.450- 182 2.47 119 2.47 245 2.47 228 2.48 105 2.48 167 2.48 236 2.52 111 2.52
                           176 2.52 173 2.52 113 2.52 237 2.52
  48  1.000  0.667  0.450- 183 2.47 120 2.47 246 2.47 226 2.48 103 2.48 168 2.48 109 2.52 235 2.52
                           237 2.52 177 2.52 174 2.52 114 2.52
  49  0.333  0.000  0.450- 121 2.47 247 2.47 184 2.47 230 2.48 169 2.48 107 2.48 113 2.52 175 2.52
                           178 2.52 238 2.52 239 2.52 115 2.52
  50  0.333  0.333  0.450- 185 2.47 122 2.47 248 2.47 231 2.48 108 2.48 170 2.48 239 2.52 114 2.52
                           179 2.52 176 2.52 116 2.52 240 2.52
  51  0.333  0.667  0.450- 186 2.47 123 2.47 249 2.47 229 2.48 106 2.48 171 2.48 112 2.52 238 2.52
                           240 2.52 177 2.52 180 2.52 117 2.52
  52  0.667  0.000  0.450- 124 2.47 250 2.47 187 2.47 233 2.48 163 2.48 101 2.48 116 2.52 178 2.52
                           172 2.52 241 2.52 242 2.52 109 2.52
  53  0.667  0.333  0.450- 188 2.47 125 2.47 251 2.47 234 2.48 102 2.48 164 2.48 242 2.52 117 2.52
                           173 2.52 179 2.52 110 2.52 243 2.52
  54  0.667  0.667  0.450- 189 2.47 126 2.47 252 2.47 232 2.48 100 2.48 165 2.48 115 2.52 241 2.52
                           243 2.52 180 2.52 174 2.52 111 2.52
  55  0.111  0.111  0.519- 236 2.47 113 2.47 175 2.47 119 2.52 245 2.52 184 2.52 244 2.52 181 2.52
                           121 2.52
  56  0.111  0.444  0.519- 176 2.47 237 2.47 114 2.47 245 2.52 120 2.52 185 2.52 182 2.52 122 2.52
                           246 2.52
  57  0.111  0.778  0.519- 235 2.47 177 2.47 112 2.47 246 2.52 118 2.52 186 2.52 183 2.52 244 2.52
                           123 2.52
  58  0.444  0.111  0.519- 239 2.47 116 2.47 178 2.47 122 2.52 248 2.52 187 2.52 184 2.52 247 2.52
                           124 2.52
  59  0.444  0.444  0.519- 254 1.77 253 1.77 179 2.47 240 2.47 117 2.47 248 2.52 123 2.52 185 2.52
                           188 2.52 125 2.52 249 2.52
  60  0.444  0.778  0.519- 238 2.47 180 2.47 115 2.47 249 2.52 121 2.52 189 2.52 186 2.52 247 2.52
                           126 2.52
  61  0.778  0.111  0.519- 242 2.47 110 2.47 172 2.47 125 2.52 251 2.52 181 2.52 187 2.52 250 2.52
                           118 2.52
  62  0.778  0.444  0.519- 173 2.47 243 2.47 111 2.47 251 2.52 126 2.52 188 2.52 182 2.52 119 2.52
                           252 2.52
  63  0.778  0.778  0.519- 241 2.47 174 2.47 109 2.47 252 2.52 124 2.52 183 2.52 189 2.52 250 2.52
                           120 2.52
  64  0.278  0.278  0.104- 138 2.47  18 2.47 205 2.47   3 2.52 129 2.52 127 2.52 196 2.52 190 2.52
                             7 2.52
  65  0.278  0.611  0.104- 136 2.47  16 2.47 206 2.47 128 2.52   1 2.52 191 2.52 197 2.52   8 2.52
                           127 2.52
  66  0.278  0.944  0.104- 137 2.47 207 2.47  17 2.47   2 2.52 198 2.52 192 2.52 129 2.52 128 2.52
                             9 2.52
  67  0.611  0.278  0.104- 141 2.47  12 2.47 199 2.47   6 2.52 132 2.52 130 2.52 193 2.52 190 2.52
                             1 2.52
  68  0.611  0.611  0.104- 139 2.47  10 2.47 200 2.47 131 2.52   4 2.52 194 2.52 191 2.52   2 2.52
                           130 2.52
  69  0.611  0.944  0.104- 140 2.47 201 2.47  11 2.47   5 2.52 192 2.52 195 2.52 132 2.52 131 2.52
                             3 2.52
  70  0.944  0.278  0.104- 144 2.47  15 2.47 202 2.47   9 2.52 135 2.52 133 2.52 193 2.52 196 2.52
                             4 2.52
  71  0.944  0.611  0.104- 142 2.47  13 2.47 203 2.47 134 2.52   7 2.52 194 2.52 197 2.52   5 2.52
                           133 2.52
  72  0.944  0.944  0.104- 143 2.47 204 2.47  14 2.47   8 2.52 195 2.52 135 2.52 198 2.52 134 2.52
                             6 2.52
  73  0.389  0.389  0.173-   1 2.47 127 2.47 190 2.47 147 2.48  27 2.48 214 2.48  12 2.52 136 2.52
                           199 2.52 205 2.52 138 2.52  16 2.52
  74  0.389  0.722  0.173-   2 2.47 128 2.47 191 2.47 145 2.48 215 2.48  25 2.48 137 2.52  10 2.52
                           206 2.52 200 2.52 136 2.52  17 2.52
  75  0.389  0.056  0.173- 192 2.47   3 2.47 129 2.47 146 2.48  26 2.48 216 2.48  11 2.52 137 2.52
                           138 2.52 207 2.52 201 2.52  18 2.52
  76  0.722  0.389  0.173-   4 2.47 130 2.47 193 2.47 150 2.48  21 2.48 208 2.48  15 2.52 139 2.52
                           202 2.52 199 2.52 141 2.52  10 2.52
  77  0.722  0.722  0.173-   5 2.47 131 2.47 194 2.47 148 2.48 209 2.48  19 2.48 140 2.52  13 2.52
                           203 2.52 200 2.52 139 2.52  11 2.52
  78  0.722  0.056  0.173- 195 2.47   6 2.47 132 2.47 149 2.48  20 2.48 210 2.48  14 2.52 140 2.52
                           141 2.52 204 2.52 201 2.52  12 2.52
  79  0.056  0.389  0.173-   7 2.47 196 2.47 133 2.47 153 2.48  24 2.48 211 2.48  18 2.52 142 2.52
                           205 2.52 202 2.52 144 2.52  13 2.52
  80  0.056  0.722  0.173-   8 2.47 197 2.47 134 2.47 151 2.48 212 2.48  22 2.48 143 2.52  16 2.52
                           206 2.52 203 2.52 142 2.52  14 2.52
  81  0.056  0.056  0.173- 198 2.47   9 2.47 135 2.47 152 2.48  23 2.48 213 2.48  17 2.52 143 2.52
                           144 2.52 207 2.52 204 2.52  15 2.52
  82  0.500  0.500  0.242- 223 2.48 156 2.48  36 2.48  10 2.48 136 2.48 199 2.48 145 2.52  21 2.52
                           214 2.52 208 2.52  25 2.52 147 2.52
  83  0.500  0.833  0.242- 154 2.48  34 2.48 224 2.48 200 2.48  11 2.48 137 2.48  19 2.52 145 2.52
                           215 2.52 209 2.52 146 2.52  26 2.52
  84  0.500  0.167  0.242- 155 2.48 225 2.48  35 2.48  12 2.48 138 2.48 201 2.48 147 2.52  20 2.52
                           216 2.52 210 2.52 146 2.52  27 2.52
  85  0.833  0.500  0.242- 217 2.48 159 2.48  30 2.48  13 2.48 139 2.48 202 2.48 148 2.52  24 2.52
                           208 2.52 211 2.52  19 2.52 150 2.52
  86  0.833  0.833  0.242- 157 2.48  28 2.48 218 2.48 203 2.48  14 2.48 140 2.48  22 2.52 148 2.52
                           209 2.52 149 2.52 212 2.52  20 2.52
  87  0.833  0.167  0.242- 158 2.48 219 2.48  29 2.48  15 2.48 141 2.48 204 2.48 150 2.52  23 2.52
                           210 2.52 213 2.52 149 2.52  21 2.52
  88  0.167  0.500  0.242- 220 2.48 162 2.48  33 2.48  16 2.48 142 2.48 205 2.48 151 2.52  27 2.52
                           211 2.52 214 2.52  22 2.52 153 2.52
  89  0.167  0.833  0.242- 160 2.48  31 2.48 221 2.48 206 2.48  17 2.48 143 2.48  25 2.52 151 2.52
                           215 2.52 212 2.52 152 2.52  23 2.52
  90  0.167  0.167  0.242- 161 2.48 222 2.48  32 2.48  18 2.48 144 2.48 207 2.48 153 2.52  26 2.52
                           216 2.52 213 2.52 152 2.52  24 2.52
  91  0.611  0.611  0.312- 165 2.48 208 2.48  19 2.48  45 2.48 232 2.48 145 2.48 154 2.52  30 2.52
                           223 2.52 217 2.52  34 2.52 156 2.52
  92  0.611  0.944  0.312- 163 2.48  20 2.48 233 2.48  43 2.48 146 2.48 209 2.48  28 2.52 224 2.52
                           218 2.52 155 2.52 154 2.52  35 2.52
  93  0.611  0.278  0.312- 164 2.48 210 2.48  21 2.48  44 2.48 234 2.48 147 2.48  29 2.52 155 2.52
                           156 2.52 219 2.52 225 2.52  36 2.52
  94  0.944  0.611  0.312- 211 2.48 168 2.48  22 2.48  39 2.48 226 2.48 148 2.48 157 2.52  33 2.52
                           217 2.52 220 2.52  28 2.52 159 2.52
  95  0.944  0.944  0.312- 166 2.48 227 2.48  23 2.48  37 2.48 149 2.48 212 2.48  31 2.52 218 2.52
                           158 2.52 221 2.52 157 2.52  29 2.52
  96  0.944  0.278  0.312- 213 2.48 167 2.48  24 2.48  38 2.48 228 2.48 150 2.48  32 2.52 158 2.52
                           159 2.52 219 2.52 222 2.52  30 2.52
  97  0.278  0.611  0.312- 171 2.48 214 2.48  25 2.48  42 2.48 229 2.48 151 2.48 160 2.52  36 2.52
                           223 2.52 220 2.52  31 2.52 162 2.52
  98  0.278  0.944  0.312- 169 2.48  26 2.48 230 2.48  40 2.48 152 2.48 215 2.48  34 2.52 221 2.52
                           224 2.52 161 2.52 160 2.52  32 2.52
  99  0.278  0.278  0.312- 170 2.48 216 2.48  27 2.48  41 2.48 231 2.48 153 2.48  35 2.52 161 2.52
                           162 2.52 222 2.52 225 2.52  33 2.52
 100  0.722  0.722  0.381-  28 2.48 154 2.48 217 2.48 174 2.48 241 2.48  54 2.48 163 2.52  39 2.52
                           226 2.52 232 2.52 165 2.52  43 2.52
 101  0.722  0.056  0.381- 218 2.48  29 2.48 155 2.48 172 2.48  52 2.48 242 2.48  37 2.52 163 2.52
                           164 2.52 227 2.52 233 2.52  44 2.52
 102  0.722  0.389  0.381-  30 2.48 156 2.48 219 2.48 173 2.48  53 2.48 243 2.48  38 2.52 165 2.52
                           234 2.52 228 2.52 164 2.52  45 2.52
 103  0.056  0.722  0.381-  31 2.48 220 2.48 157 2.48 177 2.48 235 2.48  48 2.48 166 2.52  42 2.52
                           229 2.52 226 2.52 168 2.52  37 2.52
 104  0.056  0.056  0.381- 221 2.48  32 2.48 158 2.48 175 2.48  46 2.48 236 2.48  40 2.52 166 2.52
                           167 2.52 230 2.52 227 2.52  38 2.52
 105  0.056  0.389  0.381-  33 2.48 222 2.48 159 2.48 176 2.48  47 2.48 237 2.48  41 2.52 168 2.52
                           231 2.52 228 2.52 167 2.52  39 2.52
 106  0.389  0.722  0.381-  34 2.48 160 2.48 223 2.48 180 2.48 238 2.48  51 2.48 169 2.52  45 2.52
                           229 2.52 232 2.52 171 2.52  40 2.52
 107  0.389  0.056  0.381- 224 2.48  35 2.48 161 2.48 178 2.48  49 2.48 239 2.48  43 2.52 169 2.52
                           170 2.52 230 2.52 233 2.52  41 2.52
 108  0.389  0.389  0.381-  36 2.48 162 2.48 225 2.48 179 2.48  50 2.48 240 2.48  44 2.52 171 2.52
                           234 2.52 231 2.52 170 2.52  42 2.52
 109  0.833  0.833  0.450- 183 2.47  63 2.47 250 2.47 226 2.48  37 2.48 163 2.48  48 2.52 174 2.52
                           241 2.52 172 2.52 235 2.52  52 2.52
 110  0.833  0.167  0.450- 181 2.47 251 2.47  61 2.47  38 2.48 164 2.48 227 2.48 173 2.52  46 2.52
                           242 2.52 236 2.52 172 2.52  53 2.52
 111  0.833  0.500  0.450- 252 2.47 182 2.47  62 2.47  39 2.48 165 2.48 228 2.48 174 2.52  47 2.52
                           243 2.52 237 2.52  54 2.52 173 2.52
 112  0.167  0.833  0.450- 186 2.47  57 2.47 244 2.47 229 2.48  40 2.48 166 2.48  51 2.52 177 2.52
                           238 2.52 235 2.52 175 2.52  46 2.52
 113  0.167  0.167  0.450- 184 2.47 245 2.47  55 2.47  41 2.48 167 2.48 230 2.48 176 2.52  49 2.52
                           239 2.52 236 2.52 175 2.52  47 2.52
 114  0.167  0.500  0.450- 246 2.47 185 2.47  56 2.47  42 2.48 168 2.48 231 2.48 177 2.52  50 2.52
                           237 2.52 240 2.52  48 2.52 176 2.52
 115  0.500  0.833  0.450- 189 2.47  60 2.47 247 2.47 232 2.48  43 2.48 169 2.48  54 2.52 180 2.52
                           241 2.52 238 2.52 178 2.52  49 2.52
 116  0.500  0.167  0.450- 187 2.47 248 2.47  58 2.47  44 2.48 170 2.48 233 2.48 179 2.52  52 2.52
                           242 2.52 239 2.52 178 2.52  50 2.52
 117  0.500  0.500  0.450- 249 2.47 188 2.47  59 2.47  45 2.48 171 2.48 234 2.48 180 2.52  53 2.52
                           240 2.52 243 2.52  51 2.52 179 2.52
 118  0.944  0.944  0.519-  46 2.47 172 2.47 235 2.47  57 2.52 250 2.52 181 2.52 244 2.52 183 2.52
                            61 2.52
 119  0.944  0.278  0.519- 236 2.47  47 2.47 173 2.47  55 2.52 181 2.52 182 2.52 251 2.52 245 2.52
                            62 2.52
 120  0.944  0.611  0.519- 237 2.47  48 2.47 174 2.47 183 2.52  56 2.52 252 2.52 246 2.52  63 2.52
                           182 2.52
 121  0.278  0.944  0.519-  49 2.47 175 2.47 238 2.47  60 2.52 244 2.52 247 2.52 184 2.52 186 2.52
                            55 2.52
 122  0.278  0.278  0.519- 239 2.47  50 2.47 176 2.47  58 2.52 184 2.52 185 2.52 245 2.52 248 2.52
                            56 2.52
 123  0.278  0.611  0.519- 254 1.77 240 2.47  51 2.47 177 2.47 186 2.52  59 2.52 249 2.52 246 2.52
                            57 2.52 185 2.52
 124  0.611  0.944  0.519-  52 2.47 178 2.47 241 2.47  63 2.52 247 2.52 250 2.52 187 2.52 189 2.52
                            58 2.52
 125  0.611  0.278  0.519- 242 2.47  53 2.47 179 2.47  61 2.52 187 2.52 188 2.52 251 2.52 248 2.52
                            59 2.52
 126  0.611  0.611  0.519- 243 2.47  54 2.47 180 2.47 189 2.52  62 2.52 249 2.52 252 2.52  60 2.52
                           188 2.52
 127  0.278  0.444  0.104- 205 2.47  73 2.47  16 2.47  64 2.52 197 2.52   1 2.52   7 2.52 190 2.52
                            65 2.52
 128  0.278  0.778  0.104- 206 2.47  74 2.47  17 2.47  65 2.52 198 2.52   8 2.52   2 2.52  66 2.52
                           191 2.52
 129  0.278  0.111  0.104-  18 2.47 207 2.47  75 2.47 196 2.52  64 2.52   9 2.52   3 2.52  66 2.52
                           192 2.52
 130  0.611  0.444  0.104- 199 2.47  76 2.47  10 2.47  67 2.52 191 2.52   4 2.52   1 2.52 193 2.52
                            68 2.52
 131  0.611  0.778  0.104- 200 2.47  77 2.47  11 2.47  68 2.52 192 2.52   2 2.52   5 2.52  69 2.52
                           194 2.52
 132  0.611  0.111  0.104-  12 2.47 201 2.47  78 2.47 190 2.52  67 2.52   3 2.52   6 2.52  69 2.52
                           195 2.52
 133  0.944  0.444  0.104- 202 2.47  13 2.47  79 2.47  70 2.52 194 2.52   4 2.52   7 2.52  71 2.52
                           196 2.52
 134  0.944  0.778  0.104- 203 2.47  14 2.47  80 2.47  71 2.52 195 2.52   5 2.52   8 2.52  72 2.52
                           197 2.52
 135  0.944  0.111  0.104-  15 2.47 204 2.47  81 2.47 193 2.52  70 2.52   6 2.52  72 2.52   9 2.52
                           198 2.52
 136  0.389  0.556  0.173-  65 2.47 191 2.47   1 2.47 214 2.48  82 2.48  25 2.48 206 2.52  73 2.52
                            16 2.52  10 2.52  74 2.52 199 2.52
 137  0.389  0.889  0.173-  66 2.47 192 2.47   2 2.47  26 2.48 215 2.48  83 2.48 207 2.52  75 2.52
                            74 2.52  11 2.52  17 2.52 200 2.52
 138  0.389  0.222  0.173-  64 2.47   3 2.47 190 2.47 216 2.48  84 2.48  27 2.48  75 2.52 205 2.52
                            12 2.52  18 2.52  73 2.52 201 2.52
 139  0.722  0.556  0.173-  68 2.47 194 2.47   4 2.47 208 2.48  85 2.48  19 2.48 200 2.52  76 2.52
                            10 2.52  13 2.52  77 2.52 202 2.52
 140  0.722  0.889  0.173-  69 2.47 195 2.47   5 2.47  20 2.48 209 2.48  86 2.48 201 2.52  78 2.52
                            77 2.52  14 2.52  11 2.52 203 2.52
 141  0.722  0.222  0.173-  67 2.47   6 2.47 193 2.47 210 2.48  87 2.48  21 2.48  78 2.52 199 2.52
                            15 2.52  12 2.52  76 2.52 204 2.52
 142  0.056  0.556  0.173-  71 2.47 197 2.47   7 2.47 211 2.48  88 2.48  22 2.48  79 2.52 203 2.52
                            16 2.52  13 2.52  80 2.52 205 2.52
 143  0.056  0.889  0.173-  72 2.47 198 2.47   8 2.47  23 2.48 212 2.48  89 2.48 204 2.52  81 2.52
                            80 2.52  17 2.52  14 2.52 206 2.52
 144  0.056  0.222  0.173-   9 2.47  70 2.47 196 2.47 213 2.48  90 2.48  24 2.48  81 2.52 202 2.52
                            18 2.52  15 2.52  79 2.52 207 2.52
 145  0.500  0.667  0.242-  34 2.48 223 2.48  91 2.48  74 2.48 200 2.48  10 2.48 215 2.52  83 2.52
                            82 2.52  19 2.52  25 2.52 208 2.52
 146  0.500  0.000  0.242- 224 2.48  92 2.48  35 2.48  75 2.48  11 2.48 201 2.48 216 2.52  20 2.52
                            26 2.52  83 2.52  84 2.52 209 2.52
 147  0.500  0.333  0.242-  36 2.48 225 2.48  93 2.48  73 2.48 199 2.48  12 2.48  84 2.52 214 2.52
                            27 2.52  21 2.52 210 2.52  82 2.52
 148  0.833  0.667  0.242-  28 2.48 217 2.48  94 2.48  77 2.48 203 2.48  13 2.48 209 2.52  86 2.52
                            85 2.52  19 2.52  22 2.52 211 2.52
 149  0.833  0.000  0.242- 218 2.48  95 2.48  29 2.48  78 2.48  14 2.48 204 2.48 210 2.52  20 2.52
                            86 2.52  23 2.52  87 2.52 212 2.52
 150  0.833  0.333  0.242-  30 2.48 219 2.48  96 2.48  76 2.48 202 2.48  15 2.48  87 2.52 208 2.52
                            21 2.52  24 2.52  85 2.52 213 2.52
 151  0.167  0.667  0.242-  31 2.48 220 2.48  97 2.48  80 2.48 206 2.48  16 2.48 212 2.52  89 2.52
                            88 2.52  25 2.52  22 2.52 214 2.52
 152  0.167  0.000  0.242- 221 2.48  98 2.48  32 2.48  81 2.48  17 2.48 207 2.48 213 2.52  26 2.52
                            23 2.52  89 2.52  90 2.52 215 2.52
 153  0.167  0.333  0.242-  33 2.48 222 2.48  99 2.48  79 2.48 205 2.48  18 2.48  90 2.52 211 2.52
                            27 2.52  24 2.52 216 2.52  88 2.52
 154  0.611  0.778  0.312-  83 2.48 232 2.48  19 2.48 209 2.48 100 2.48  43 2.48  91 2.52 224 2.52
                            34 2.52  28 2.52  92 2.52 217 2.52
 155  0.611  0.111  0.312-  84 2.48  44 2.48 233 2.48 210 2.48  20 2.48 101 2.48 225 2.52  93 2.52
                            35 2.52  29 2.52  92 2.52 218 2.52
 156  0.611  0.444  0.312- 234 2.48  21 2.48  82 2.48 102 2.48  45 2.48 208 2.48  93 2.52 223 2.52
                            30 2.52  36 2.52 219 2.52  91 2.52
 157  0.944  0.778  0.312-  86 2.48 226 2.48  22 2.48  37 2.48 212 2.48 103 2.48  94 2.52 218 2.52
                            28 2.52  31 2.52  95 2.52 220 2.52
 158  0.944  0.111  0.312-  87 2.48  38 2.48 227 2.48  23 2.48 213 2.48 104 2.48 219 2.52  96 2.52
                            29 2.52  95 2.52  32 2.52 221 2.52
 159  0.944  0.444  0.312- 228 2.48  24 2.48  85 2.48  39 2.48 105 2.48 211 2.48  96 2.52 217 2.52
                            30 2.52  33 2.52  94 2.52 222 2.52
 160  0.278  0.778  0.312-  89 2.48 229 2.48  25 2.48 215 2.48 106 2.48  40 2.48  97 2.52 221 2.52
                            34 2.52  31 2.52  98 2.52 223 2.52
 161  0.278  0.111  0.312-  90 2.48  41 2.48 230 2.48 216 2.48  26 2.48 107 2.48 222 2.52  99 2.52
                            32 2.52  35 2.52  98 2.52 224 2.52
 162  0.278  0.444  0.312- 231 2.48  27 2.48  88 2.48 108 2.48  42 2.48 214 2.48  99 2.52 220 2.52
                            36 2.52  33 2.52 225 2.52  97 2.52
 163  0.722  0.889  0.381-  92 2.48 218 2.48  28 2.48  52 2.48 241 2.48 109 2.48 233 2.52 101 2.52
                           100 2.52  37 2.52  43 2.52 226 2.52
 164  0.722  0.222  0.381-  93 2.48  29 2.48 219 2.48 242 2.48 110 2.48  53 2.48 101 2.52 234 2.52
                            38 2.52  44 2.52 102 2.52 227 2.52
 165  0.722  0.556  0.381-  91 2.48 217 2.48  30 2.48 243 2.48 111 2.48  54 2.48 232 2.52 102 2.52
                            45 2.52  39 2.52 100 2.52 228 2.52
 166  0.056  0.889  0.381-  95 2.48 221 2.48  31 2.48  46 2.48 235 2.48 112 2.48 227 2.52 104 2.52
                           103 2.52  40 2.52  37 2.52 229 2.52
 167  0.056  0.222  0.381-  32 2.48  96 2.48 222 2.48 236 2.48 113 2.48  47 2.48 104 2.52 228 2.52
                            41 2.52  38 2.52 105 2.52 230 2.52
 168  0.056  0.556  0.381-  94 2.48 220 2.48  33 2.48 237 2.48 114 2.48  48 2.48 105 2.52 226 2.52
                            42 2.52  39 2.52 103 2.52 231 2.52
 169  0.389  0.889  0.381-  98 2.48 224 2.48  34 2.48  49 2.48 238 2.48 115 2.48 230 2.52 107 2.52
                           106 2.52  43 2.52  40 2.52 232 2.52
 170  0.389  0.222  0.381-  99 2.48  35 2.48 225 2.48 239 2.48 116 2.48  50 2.48 107 2.52 231 2.52
                            44 2.52  41 2.52 108 2.52 233 2.52
 171  0.389  0.556  0.381-  97 2.48 223 2.48  36 2.48 240 2.48 117 2.48  51 2.48 229 2.52 108 2.52
                            42 2.52  45 2.52 106 2.52 234 2.52
 172  0.833  0.000  0.450- 250 2.47 118 2.47  61 2.47 101 2.48  37 2.48 227 2.48 242 2.52  52 2.52
                           109 2.52  46 2.52 110 2.52 235 2.52
 173  0.833  0.333  0.450-  62 2.47 251 2.47 119 2.47 102 2.48 228 2.48  38 2.48 110 2.52 243 2.52
                            53 2.52  47 2.52 111 2.52 236 2.52
 174  0.833  0.667  0.450-  63 2.47 252 2.47 120 2.47 100 2.48 226 2.48  39 2.48 241 2.52 109 2.52
                           111 2.52  54 2.52  48 2.52 237 2.52
 175  0.167  0.000  0.450- 244 2.47 121 2.47  55 2.47 104 2.48  40 2.48 230 2.48 236 2.52  49 2.52
                            46 2.52 112 2.52 113 2.52 238 2.52
 176  0.167  0.333  0.450-  56 2.47 245 2.47 122 2.47 105 2.48 231 2.48  41 2.48 113 2.52 237 2.52
                            50 2.52  47 2.52 239 2.52 114 2.52
 177  0.167  0.667  0.450-  57 2.47 246 2.47 123 2.47 103 2.48 229 2.48  42 2.48 235 2.52 112 2.52
                           114 2.52  51 2.52  48 2.52 240 2.52
 178  0.500  0.000  0.450- 247 2.47 124 2.47  58 2.47 107 2.48  43 2.48 233 2.48 239 2.52  52 2.52
                            49 2.52 115 2.52 116 2.52 241 2.52
 179  0.500  0.333  0.450-  59 2.47 248 2.47 125 2.47 108 2.48 234 2.48  44 2.48 116 2.52 240 2.52
                            50 2.52  53 2.52 242 2.52 117 2.52
 180  0.500  0.667  0.450-  60 2.47 249 2.47 126 2.47 106 2.48 232 2.48  45 2.48 238 2.52 115 2.52
                           117 2.52  54 2.52  51 2.52 243 2.52
 181  0.944  0.111  0.519- 110 2.47  46 2.47 236 2.47 251 2.52 119 2.52  61 2.52 118 2.52  55 2.52
                           244 2.52
 182  0.944  0.444  0.519-  47 2.47 111 2.47 237 2.47 119 2.52 252 2.52  62 2.52  56 2.52 120 2.52
                           245 2.52
 183  0.944  0.778  0.519- 109 2.47  48 2.47 235 2.47 120 2.52 250 2.52  63 2.52  57 2.52 118 2.52
                           246 2.52
 184  0.278  0.111  0.519- 113 2.47 239 2.47  49 2.47 245 2.52 122 2.52  55 2.52  58 2.52 121 2.52
                           247 2.52
 185  0.278  0.444  0.519-  50 2.47 114 2.47 240 2.47 122 2.52 246 2.52  59 2.52  56 2.52 248 2.52
                           123 2.52
 186  0.278  0.778  0.519- 112 2.47  51 2.47 238 2.47 123 2.52 244 2.52  57 2.52  60 2.52 121 2.52
                           249 2.52
 187  0.611  0.111  0.519- 116 2.47 242 2.47  52 2.47 248 2.52 125 2.52  58 2.52  61 2.52 124 2.52
                           250 2.52
 188  0.611  0.444  0.519- 253 1.77  53 2.47 117 2.47 243 2.47 125 2.52 249 2.52  62 2.52  59 2.52
                           251 2.52 126 2.52
 189  0.611  0.778  0.519- 115 2.47  54 2.47 241 2.47 126 2.52 247 2.52  60 2.52  63 2.52 124 2.52
                           252 2.52
 190  0.444  0.278  0.104-  12 2.47 138 2.47  73 2.47 132 2.52   3 2.52   1 2.52  67 2.52  64 2.52
                           127 2.52
 191  0.444  0.611  0.104-  10 2.47 136 2.47  74 2.47   2 2.52 130 2.52  65 2.52  68 2.52 128 2.52
                             1 2.52
 192  0.444  0.944  0.104-  11 2.47  75 2.47 137 2.47 131 2.52  69 2.52  66 2.52   3 2.52   2 2.52
                           129 2.52
 193  0.778  0.278  0.104-  15 2.47 141 2.47  76 2.47 135 2.52   6 2.52   4 2.52  67 2.52  70 2.52
                           130 2.52
 194  0.778  0.611  0.104-  13 2.47 139 2.47  77 2.47   5 2.52 133 2.52  71 2.52  68 2.52 131 2.52
                             4 2.52
 195  0.778  0.944  0.104-  14 2.47  78 2.47 140 2.47 134 2.52  72 2.52  69 2.52   6 2.52   5 2.52
                           132 2.52
 196  0.111  0.278  0.104-  18 2.47 144 2.47  79 2.47 129 2.52   9 2.52   7 2.52  64 2.52  70 2.52
                           133 2.52
 197  0.111  0.611  0.104-  16 2.47 142 2.47  80 2.47   8 2.52 127 2.52  65 2.52  71 2.52   7 2.52
                           134 2.52
 198  0.111  0.944  0.104-  17 2.47  81 2.47 143 2.47 128 2.52  66 2.52   9 2.52  72 2.52   8 2.52
                           135 2.52
 199  0.556  0.389  0.173- 130 2.47   1 2.47  67 2.47  21 2.48 147 2.48  82 2.48 141 2.52  10 2.52
                            73 2.52  76 2.52  12 2.52 136 2.52
 200  0.556  0.722  0.173- 131 2.47   2 2.47  68 2.47  19 2.48  83 2.48 145 2.48  11 2.52 139 2.52
                            74 2.52  77 2.52  10 2.52 137 2.52
 201  0.556  0.056  0.173-  69 2.47 132 2.47   3 2.47  20 2.48 146 2.48  84 2.48 140 2.52  11 2.52
                            12 2.52  75 2.52  78 2.52 138 2.52
 202  0.889  0.389  0.173- 133 2.47   4 2.47  70 2.47  24 2.48 150 2.48  85 2.48  13 2.52 144 2.52
                            76 2.52  79 2.52  15 2.52 139 2.52
 203  0.889  0.722  0.173- 134 2.47   5 2.47  71 2.47  86 2.48  22 2.48 148 2.48  14 2.52 142 2.52
                            77 2.52  80 2.52  13 2.52 140 2.52
 204  0.889  0.056  0.173-  72 2.47 135 2.47   6 2.47  23 2.48 149 2.48  87 2.48 143 2.52  14 2.52
                            15 2.52  78 2.52  81 2.52 141 2.52
 205  0.222  0.389  0.173- 127 2.47   7 2.47  64 2.47  27 2.48 153 2.48  88 2.48 138 2.52  16 2.52
                            79 2.52  73 2.52  18 2.52 142 2.52
 206  0.222  0.722  0.173- 128 2.47   8 2.47  65 2.47  25 2.48  89 2.48 151 2.48  17 2.52 136 2.52
                            74 2.52  80 2.52  16 2.52 143 2.52
 207  0.222  0.056  0.173-  66 2.47 129 2.47   9 2.47  26 2.48 152 2.48  90 2.48 137 2.52  17 2.52
                            18 2.52  75 2.52  81 2.52 144 2.52
 208  0.667  0.500  0.242-  91 2.48  30 2.48 156 2.48 139 2.48  10 2.48  76 2.48  19 2.52 150 2.52
                            82 2.52  85 2.52 145 2.52  21 2.52
 209  0.667  0.833  0.242-  28 2.48 154 2.48  92 2.48  77 2.48 140 2.48  11 2.48 148 2.52  19 2.52
                            86 2.52  83 2.52  20 2.52 146 2.52
 210  0.667  0.167  0.242-  29 2.48  93 2.48 155 2.48 141 2.48  12 2.48  78 2.48  21 2.52 149 2.52
                            87 2.52  84 2.52  20 2.52 147 2.52
 211  0.000  0.500  0.242-  94 2.48  33 2.48 159 2.48 142 2.48  79 2.48  13 2.48  22 2.52 153 2.52
                            88 2.52  85 2.52  24 2.52 148 2.52
 212  0.000  0.833  0.242-  31 2.48  95 2.48 157 2.48  80 2.48 143 2.48  14 2.48 151 2.52  22 2.52
                            89 2.52  23 2.52  86 2.52 149 2.52
 213  0.000  0.167  0.242-  32 2.48  96 2.48 158 2.48 144 2.48  81 2.48  15 2.48  24 2.52 152 2.52
                            90 2.52  87 2.52  23 2.52 150 2.52
 214  0.333  0.500  0.242-  97 2.48  36 2.48 162 2.48 136 2.48  16 2.48  73 2.48  25 2.52 147 2.52
                            82 2.52  88 2.52 151 2.52  27 2.52
 215  0.333  0.833  0.242-  34 2.48 160 2.48  98 2.48  74 2.48 137 2.48  17 2.48 145 2.52  25 2.52
                            89 2.52  83 2.52  26 2.52 152 2.52
 216  0.333  0.167  0.242-  35 2.48  99 2.48 161 2.48 138 2.48  18 2.48  75 2.48  27 2.52 146 2.52
                            90 2.52  84 2.52  26 2.52 153 2.52
 217  0.778  0.611  0.312-  39 2.48  85 2.48 148 2.48 165 2.48 100 2.48  19 2.48  28 2.52 159 2.52
                            94 2.52  91 2.52 154 2.52  30 2.52
 218  0.778  0.944  0.312-  37 2.48 149 2.48 101 2.48 163 2.48  20 2.48  86 2.48 157 2.52  92 2.52
                            95 2.52  29 2.52  28 2.52 155 2.52
 219  0.778  0.278  0.312-  38 2.48  87 2.48 150 2.48 164 2.48 102 2.48  21 2.48 158 2.52  29 2.52
                            30 2.52  93 2.52  96 2.52 156 2.52
 220  0.111  0.611  0.312-  42 2.48  88 2.48 151 2.48 168 2.48 103 2.48  22 2.48  31 2.52 162 2.52
                            97 2.52  94 2.52  33 2.52 157 2.52
 221  0.111  0.944  0.312-  40 2.48 152 2.48 104 2.48 166 2.48  23 2.48  89 2.48 160 2.52  98 2.52
                            32 2.52  95 2.52  31 2.52 158 2.52
 222  0.111  0.278  0.312-  41 2.48  90 2.48 153 2.48 167 2.48 105 2.48  24 2.48 161 2.52  32 2.52
                            33 2.52  99 2.52  96 2.52 159 2.52
 223  0.444  0.611  0.312-  45 2.48  82 2.48 145 2.48 171 2.48 106 2.48  25 2.48  34 2.52 156 2.52
                            97 2.52  91 2.52 160 2.52  36 2.52
 224  0.444  0.944  0.312-  43 2.48 146 2.48 107 2.48 169 2.48  26 2.48  83 2.48 154 2.52  92 2.52
                            98 2.52  35 2.52  34 2.52 161 2.52
 225  0.444  0.278  0.312-  44 2.48  84 2.48 147 2.48 170 2.48 108 2.48  27 2.48 155 2.52  35 2.52
                            36 2.52  93 2.52  99 2.52 162 2.52
 226  0.889  0.722  0.381- 157 2.48  28 2.48  94 2.48 109 2.48  48 2.48 174 2.48  37 2.52 168 2.52
                           100 2.52 103 2.52  39 2.52 163 2.52
 227  0.889  0.056  0.381-  95 2.48 158 2.48  29 2.48  46 2.48 172 2.48 110 2.48 166 2.52  37 2.52
                            38 2.52 101 2.52 104 2.52 164 2.52
 228  0.889  0.389  0.381- 159 2.48  30 2.48  96 2.48  47 2.48 173 2.48 111 2.48  39 2.52 167 2.52
                           102 2.52 105 2.52  38 2.52 165 2.52
 229  0.222  0.722  0.381- 160 2.48  31 2.48  97 2.48  51 2.48 112 2.48 177 2.48  40 2.52 171 2.52
                           106 2.52 103 2.52  42 2.52 166 2.52
 230  0.222  0.056  0.381-  98 2.48 161 2.48  32 2.48  49 2.48 175 2.48 113 2.48 169 2.52  40 2.52
                            41 2.52 107 2.52 104 2.52 167 2.52
 231  0.222  0.389  0.381- 162 2.48  33 2.48  99 2.48  50 2.48 176 2.48 114 2.48 170 2.52  42 2.52
                           105 2.52 108 2.52  41 2.52 168 2.52
 232  0.556  0.722  0.381- 154 2.48  34 2.48  91 2.48  54 2.48 115 2.48 180 2.48  43 2.52 165 2.52
                           100 2.52 106 2.52  45 2.52 169 2.52
 233  0.556  0.056  0.381-  92 2.48 155 2.48  35 2.48  52 2.48 178 2.48 116 2.48 163 2.52  43 2.52
                            44 2.52 101 2.52 107 2.52 170 2.52
 234  0.556  0.389  0.381- 156 2.48  36 2.48  93 2.48  53 2.48 179 2.48 117 2.48 164 2.52  45 2.52
                           108 2.52 102 2.52  44 2.52 171 2.52
 235  0.000  0.833  0.450-  57 2.47 118 2.47 183 2.47 103 2.48 166 2.48  37 2.48 177 2.52  48 2.52
                           112 2.52  46 2.52 109 2.52 172 2.52
 236  0.000  0.167  0.450-  55 2.47 119 2.47 181 2.47 167 2.48 104 2.48  38 2.48  47 2.52 175 2.52
                           113 2.52 110 2.52  46 2.52 173 2.52
 237  0.000  0.500  0.450- 120 2.47  56 2.47 182 2.47 168 2.48 105 2.48  39 2.48  48 2.52 176 2.52
                           114 2.52 111 2.52  47 2.52 174 2.52
 238  0.333  0.833  0.450-  60 2.47 186 2.47 121 2.47 106 2.48 169 2.48  40 2.48 180 2.52  51 2.52
                           112 2.52 115 2.52  49 2.52 175 2.52
 239  0.333  0.167  0.450-  58 2.47 122 2.47 184 2.47 170 2.48  41 2.48 107 2.48  50 2.52 178 2.52
                           113 2.52 116 2.52  49 2.52 176 2.52
 240  0.333  0.500  0.450- 123 2.47  59 2.47 185 2.47 171 2.48  42 2.48 108 2.48  51 2.52 179 2.52
                           117 2.52 114 2.52 177 2.52  50 2.52
 241  0.667  0.833  0.450-  63 2.47 189 2.47 124 2.47 100 2.48 163 2.48  43 2.48 174 2.52  54 2.52
                           109 2.52 115 2.52  52 2.52 178 2.52
 242  0.667  0.167  0.450-  61 2.47 125 2.47 187 2.47 164 2.48  44 2.48 101 2.48  53 2.52 172 2.52
                           110 2.52 116 2.52  52 2.52 179 2.52
 243  0.667  0.500  0.450- 126 2.47  62 2.47 188 2.47 165 2.48  45 2.48 102 2.48  54 2.52 173 2.52
                           111 2.52 117 2.52 180 2.52  53 2.52
 244  0.111  0.944  0.519- 175 2.47  46 2.47 112 2.47 186 2.52 121 2.52  55 2.52 118 2.52  57 2.52
                           181 2.52
 245  0.111  0.278  0.519- 113 2.47 176 2.47  47 2.47 184 2.52  55 2.52  56 2.52 122 2.52 119 2.52
                           182 2.52
 246  0.111  0.611  0.519- 114 2.47 177 2.47  48 2.47  57 2.52 185 2.52 123 2.52 120 2.52  56 2.52
                           183 2.52
 247  0.444  0.944  0.519- 178 2.47  49 2.47 115 2.47 189 2.52 124 2.52 121 2.52  58 2.52  60 2.52
                           184 2.52
 248  0.444  0.278  0.519- 116 2.47 179 2.47  50 2.47 187 2.52  58 2.52  59 2.52 122 2.52 125 2.52
                           185 2.52
 249  0.444  0.611  0.519- 253 1.77 254 1.77 117 2.47 180 2.47  51 2.47  60 2.52 188 2.52 123 2.52
                           126 2.52 186 2.52  59 2.52
 250  0.778  0.944  0.519- 172 2.47  52 2.47 109 2.47 183 2.52 118 2.52 124 2.52  61 2.52  63 2.52
                           187 2.52
 251  0.778  0.278  0.519- 110 2.47 173 2.47  53 2.47 181 2.52  61 2.52  62 2.52 125 2.52 119 2.52
                           188 2.52
 252  0.778  0.611  0.519- 111 2.47 174 2.47  54 2.47  63 2.52 182 2.52 120 2.52 126 2.52 189 2.52
                            62 2.52
 253  0.500  0.500  0.553- 254 1.46 249 1.77 188 1.77  59 1.77
 254  0.389  0.556  0.553- 253 1.46 123 1.77 249 1.77  59 1.77
 
  LATTYP: Found a hexagonal cell.
 ALAT       =    15.1462217588
 C/A-ratio  =     1.9146689162
  
  Lattice vectors:
  
 A1 = (   0.0000000000,   7.5731108794,  13.1170128145)
 A2 = (   0.0000000000, -15.1462217588,   0.0000000000)
 A3 = (  29.0000000000,   0.0000000000,   0.0000000000)


Analysis of symmetry for initial positions (statically):
=====================================================================
 Subroutine PRICEL returns:
 Original cell was already a primitive cell.
 

 Routine SETGRP: Setting up the symmetry group for a 
 hexagonal supercell.


 Subroutine GETGRP returns: Found  2 space group operations
 (whereof  1 operations were pure point group operations)
 out of a pool of 24 trial point group operations.


The static configuration has the point symmetry C_1 .
 The point group associated with its full space group is C_1h.


Analysis of symmetry for dynamics (positions and initial velocities):
=====================================================================
 Subroutine PRICEL returns:
 Original cell was already a primitive cell.
 

 Routine SETGRP: Setting up the symmetry group for a 
 hexagonal supercell.


 Subroutine GETGRP returns: Found  2 space group operations
 (whereof  1 operations were pure point group operations)
 out of a pool of 24 trial point group operations.


The dynamic configuration has the point symmetry C_1 .
 The point group associated with its full space group is C_1h.


 Subroutine INISYM returns: Found  2 space group operations
 (whereof  1 operations are pure point group operations),
 and found     1 'primitive' translations


----------------------------------------------------------------------------------------

                                     Primitive cell                                     

  volume of cell :    5761.5224

  direct lattice vectors                    reciprocal lattice vectors
     0.000000000-15.146221759  0.000000000     0.000000000 -0.066023066  0.038118435
     0.000000000 -7.573110879-13.117012814     0.000000000  0.000000000 -0.076236870
    29.000000000  0.000000000  0.000000000     0.034482759  0.000000000  0.000000000

  length of vectors
    15.146221759 15.146221759 29.000000000     0.076236870  0.076236870  0.034482759

  position of ions in fractional coordinates (direct lattice)
     0.444444499  0.444444180  0.104345172
     0.444444389  0.777777696  0.104345172
     0.444444229  0.111111426  0.104345172
     0.777777794  0.444444180  0.104345172
     0.777777683  0.777777696  0.104345172
     0.777777524  0.111111426  0.104345172
     0.111111205  0.444444180  0.104345172
     0.111111094  0.777777696  0.104345172
     0.111110934  0.111111426  0.104345172
     0.555555434  0.555555606  0.173185517
     0.555555323  0.888889122  0.173185517
     0.555555544  0.222222090  0.173185517
     0.888888728  0.555555606  0.173185517
     0.888888618  0.888889122  0.173185517
     0.888888839  0.222222090  0.173185517
     0.222222139  0.555555606  0.173185517
     0.222222028  0.888889122  0.173185517
     0.222222250  0.222222090  0.173185517
     0.666666368  0.666667032  0.242498966
     0.666666589  0.000000000  0.242498966
     0.666666479  0.333333516  0.242498966
     0.999999779  0.666667032  0.242498966
     0.000000000  0.000000000  0.242498966
     0.999999889  0.333333516  0.242498966
     0.333333073  0.666667032  0.242498966
     0.333333295  0.000000000  0.242498966
     0.333333184  0.333333516  0.242498966
     0.777777683  0.777777696  0.311730690
     0.777777524  0.111111426  0.311730690
     0.777777794  0.444444180  0.311730690
     0.111111094  0.777777696  0.311730690
     0.111110934  0.111111426  0.311730690
     0.111111205  0.444444180  0.311730690
     0.444444389  0.777777696  0.311730690
     0.444444229  0.111111426  0.311730690
     0.444444499  0.444444180  0.311730690
     0.888888618  0.888889122  0.380962414
     0.888888839  0.222222090  0.380962414
     0.888888728  0.555555606  0.380962414
     0.222222028  0.888889122  0.380962414
     0.222222250  0.222222090  0.380962414
     0.222222139  0.555555606  0.380962414
     0.555555323  0.888889122  0.380962414
     0.555555544  0.222222090  0.380962414
     0.555555434  0.555555606  0.380962414
     0.000000000  0.000000000  0.450275862
     0.999999889  0.333333516  0.450275862
     0.999999779  0.666667032  0.450275862
     0.333333295  0.000000000  0.450275862
     0.333333184  0.333333516  0.450275862
     0.333333073  0.666667032  0.450275862
     0.666666589  0.000000000  0.450275862
     0.666666479  0.333333516  0.450275862
     0.666666368  0.666667032  0.450275862
     0.111110934  0.111111426  0.519116207
     0.111111205  0.444444180  0.519116207
     0.111111094  0.777777696  0.519116207
     0.444444229  0.111111426  0.519116207
     0.444444499  0.444444180  0.519116207
     0.444444389  0.777777696  0.519116207
     0.777777524  0.111111426  0.519116207
     0.777777794  0.444444180  0.519116207
     0.777777683  0.777777696  0.519116207
     0.277778238  0.277777422  0.104345172
     0.277778127  0.611110938  0.104345172
     0.277778016  0.944444454  0.104345172
     0.611111532  0.277777422  0.104345172
     0.611111422  0.611110938  0.104345172
     0.611111311  0.944444454  0.104345172
     0.944444827  0.277777422  0.104345172
     0.944444716  0.611110938  0.104345172
     0.944444605  0.944444454  0.104345172
     0.388889172  0.388888848  0.173185517
     0.388889061  0.722222364  0.173185517
     0.388889282  0.055555332  0.173185517
     0.722222466  0.388888848  0.173185517
     0.722222356  0.722222364  0.173185517
     0.722222577  0.055555332  0.173185517
     0.055555877  0.388888848  0.173185517
     0.055555767  0.722222364  0.173185517
     0.055555988  0.055555332  0.173185517
     0.500000106  0.500000274  0.242498966
     0.500000377  0.833333027  0.242498966
     0.500000217  0.166666758  0.242498966
     0.833333401  0.500000274  0.242498966
     0.833333671  0.833333027  0.242498966
     0.833333511  0.166666758  0.242498966
     0.166666811  0.500000274  0.242498966
     0.166667082  0.833333027  0.242498966
     0.166666922  0.166666758  0.242498966
     0.611111422  0.611110938  0.311730690
     0.611111311  0.944444454  0.311730690
     0.611111532  0.277777422  0.311730690
     0.944444716  0.611110938  0.311730690
     0.944444605  0.944444454  0.311730690
     0.944444827  0.277777422  0.311730690
     0.277778127  0.611110938  0.311730690
     0.277778016  0.944444454  0.311730690
     0.277778238  0.277777422  0.311730690
     0.722222356  0.722222364  0.380962414
     0.722222577  0.055555332  0.380962414
     0.722222466  0.388888848  0.380962414
     0.055555767  0.722222364  0.380962414
     0.055555988  0.055555332  0.380962414
     0.055555877  0.388888848  0.380962414
     0.388889061  0.722222364  0.380962414
     0.388889282  0.055555332  0.380962414
     0.388889172  0.388888848  0.380962414
     0.833333671  0.833333027  0.450275862
     0.833333511  0.166666758  0.450275862
     0.833333401  0.500000274  0.450275862
     0.166667082  0.833333027  0.450275862
     0.166666922  0.166666758  0.450275862
     0.166666811  0.500000274  0.450275862
     0.500000377  0.833333027  0.450275862
     0.500000217  0.166666758  0.450275862
     0.500000106  0.500000274  0.450275862
     0.944444605  0.944444454  0.519116207
     0.944444827  0.277777422  0.519116207
     0.944444716  0.611110938  0.519116207
     0.277778016  0.944444454  0.519116207
     0.277778238  0.277777422  0.519116207
     0.277778127  0.611110938  0.519116207
     0.611111311  0.944444454  0.519116207
     0.611111532  0.277777422  0.519116207
     0.611111422  0.611110938  0.519116207
     0.277777852  0.444444180  0.104345172
     0.277777741  0.777777696  0.104345172
     0.277777582  0.111111426  0.104345172
     0.611111147  0.444444180  0.104345172
     0.611111036  0.777777696  0.104345172
     0.611110876  0.111111426  0.104345172
     0.944444441  0.444444180  0.104345172
     0.944444331  0.777777696  0.104345172
     0.944444171  0.111111426  0.104345172
     0.388888786  0.555555606  0.173185517
     0.388888676  0.888889122  0.173185517
     0.388888897  0.222222090  0.173185517
     0.722222081  0.555555606  0.173185517
     0.722221970  0.888889122  0.173185517
     0.722222192  0.222222090  0.173185517
     0.055555492  0.555555606  0.173185517
     0.055555381  0.888889122  0.173185517
     0.055555602  0.222222090  0.173185517
     0.499999721  0.666667032  0.242498966
     0.499999942  0.000000000  0.242498966
     0.499999831  0.333333516  0.242498966
     0.833333015  0.666667032  0.242498966
     0.833333237  0.000000000  0.242498966
     0.833333126  0.333333516  0.242498966
     0.166666426  0.666667032  0.242498966
     0.166666647  0.000000000  0.242498966
     0.166666537  0.333333516  0.242498966
     0.611111036  0.777777696  0.311730690
     0.611110876  0.111111426  0.311730690
     0.611111147  0.444444180  0.311730690
     0.944444331  0.777777696  0.311730690
     0.944444171  0.111111426  0.311730690
     0.944444441  0.444444180  0.311730690
     0.277777741  0.777777696  0.311730690
     0.277777582  0.111111426  0.311730690
     0.277777852  0.444444180  0.311730690
     0.722221970  0.888889122  0.380962414
     0.722222192  0.222222090  0.380962414
     0.722222081  0.555555606  0.380962414
     0.055555381  0.888889122  0.380962414
     0.055555602  0.222222090  0.380962414
     0.055555492  0.555555606  0.380962414
     0.388888676  0.888889122  0.380962414
     0.388888897  0.222222090  0.380962414
     0.388888786  0.555555606  0.380962414
     0.833333237  0.000000000  0.450275862
     0.833333126  0.333333516  0.450275862
     0.833333015  0.666667032  0.450275862
     0.166666647  0.000000000  0.450275862
     0.166666537  0.333333516  0.450275862
     0.166666426  0.666667032  0.450275862
     0.499999942  0.000000000  0.450275862
     0.499999831  0.333333516  0.450275862
     0.499999721  0.666667032  0.450275862
     0.944444171  0.111111426  0.519116207
     0.944444441  0.444444180  0.519116207
     0.944444331  0.777777696  0.519116207
     0.277777582  0.111111426  0.519116207
     0.277777852  0.444444180  0.519116207
     0.277777741  0.777777696  0.519116207
     0.611110876  0.111111426  0.519116207
     0.611111147  0.444444180  0.519116207
     0.611111036  0.777777696  0.519116207
     0.444444885  0.277777422  0.104345172
     0.444444774  0.611110938  0.104345172
     0.444444664  0.944444454  0.104345172
     0.777778179  0.277777422  0.104345172
     0.777778069  0.611110938  0.104345172
     0.777777958  0.944444454  0.104345172
     0.111111590  0.277777422  0.104345172
     0.111111480  0.611110938  0.104345172
     0.111111369  0.944444454  0.104345172
     0.555555819  0.388888848  0.173185517
     0.555555708  0.722222364  0.173185517
     0.555555930  0.055555332  0.173185517
     0.888889114  0.388888848  0.173185517
     0.888889003  0.722222364  0.173185517
     0.888889224  0.055555332  0.173185517
     0.222222524  0.388888848  0.173185517
     0.222222414  0.722222364  0.173185517
     0.222222635  0.055555332  0.173185517
     0.666666753  0.500000274  0.242498966
     0.666667024  0.833333027  0.242498966
     0.666666864  0.166666758  0.242498966
     0.000000164  0.500000274  0.242498966
     0.000000435  0.833333027  0.242498966
     0.000000275  0.166666758  0.242498966
     0.333333459  0.500000274  0.242498966
     0.333333729  0.833333027  0.242498966
     0.333333569  0.166666758  0.242498966
     0.777778069  0.611110938  0.311730690
     0.777777958  0.944444454  0.311730690
     0.777778179  0.277777422  0.311730690
     0.111111480  0.611110938  0.311730690
     0.111111369  0.944444454  0.311730690
     0.111111590  0.277777422  0.311730690
     0.444444774  0.611110938  0.311730690
     0.444444664  0.944444454  0.311730690
     0.444444885  0.277777422  0.311730690
     0.888889003  0.722222364  0.380962414
     0.888889224  0.055555332  0.380962414
     0.888889114  0.388888848  0.380962414
     0.222222414  0.722222364  0.380962414
     0.222222635  0.055555332  0.380962414
     0.222222524  0.388888848  0.380962414
     0.555555708  0.722222364  0.380962414
     0.555555930  0.055555332  0.380962414
     0.555555819  0.388888848  0.380962414
     0.000000435  0.833333027  0.450275862
     0.000000275  0.166666758  0.450275862
     0.000000164  0.500000274  0.450275862
     0.333333729  0.833333027  0.450275862
     0.333333569  0.166666758  0.450275862
     0.333333459  0.500000274  0.450275862
     0.666667024  0.833333027  0.450275862
     0.666666864  0.166666758  0.450275862
     0.666666753  0.500000274  0.450275862
     0.111111369  0.944444454  0.519116207
     0.111111590  0.277777422  0.519116207
     0.111111480  0.611110938  0.519116207
     0.444444664  0.944444454  0.519116207
     0.444444885  0.277777422  0.519116207
     0.444444774  0.611110938  0.519116207
     0.777777958  0.944444454  0.519116207
     0.777778179  0.277777422  0.519116207
     0.777778069  0.611110938  0.519116207
     0.500000106  0.500000274  0.553448276
     0.388888786  0.555555606  0.553448276

  ion indices of the primitive-cell ions
   primitive index   ion index
                 1           1
                 2           2
                 3           3
                 4           4
                 5           5
                 6           6
                 7           7
                 8           8
                 9           9
                10          10
                11          11
                12          12
                13          13
                14          14
                15          15
                16          16
                17          17
                18          18
                19          19
                20          20
                21          21
                22          22
                23          23
                24          24
                25          25
                26          26
                27          27
                28          28
                29          29
                30          30
                31          31
                32          32
                33          33
                34          34
                35          35
                36          36
                37          37
                38          38
                39          39
                40          40
                41          41
                42          42
                43          43
                44          44
                45          45
                46          46
                47          47
                48          48
                49          49
                50          50
                51          51
                52          52
                53          53
                54          54
                55          55
                56          56
                57          57
                58          58
                59          59
                60          60
                61          61
                62          62
                63          63
                64          64
                65          65
                66          66
                67          67
                68          68
                69          69
                70          70
                71          71
                72          72
                73          73
                74          74
                75          75
                76          76
                77          77
                78          78
                79          79
                80          80
                81          81
                82          82
                83          83
                84          84
                85          85
                86          86
                87          87
                88          88
                89          89
                90          90
                91          91
                92          92
                93          93
                94          94
                95          95
                96          96
                97          97
                98          98
                99          99
               100         100
               101         101
               102         102
               103         103
               104         104
               105         105
               106         106
               107         107
               108         108
               109         109
               110         110
               111         111
               112         112
               113         113
               114         114
               115         115
               116         116
               117         117
               118         118
               119         119
               120         120
               121         121
               122         122
               123         123
               124         124
               125         125
               126         126
               127         127
               128         128
               129         129
               130         130
               131         131
               132         132
               133         133
               134         134
               135         135
               136         136
               137         137
               138         138
               139         139
               140         140
               141         141
               142         142
               143         143
               144         144
               145         145
               146         146
               147         147
               148         148
               149         149
               150         150
               151         151
               152         152
               153         153
               154         154
               155         155
               156         156
               157         157
               158         158
               159         159
               160         160
               161         161
               162         162
               163         163
               164         164
               165         165
               166         166
               167         167
               168         168
               169         169
               170         170
               171         171
               172         172
               173         173
               174         174
               175         175
               176         176
               177         177
               178         178
               179         179
               180         180
               181         181
               182         182
               183         183
               184         184
               185         185
               186         186
               187         187
               188         188
               189         189
               190         190
               191         191
               192         192
               193         193
               194         194
               195         195
               196         196
               197         197
               198         198
               199         199
               200         200
               201         201
               202         202
               203         203
               204         204
               205         205
               206         206
               207         207
               208         208
               209         209
               210         210
               211         211
               212         212
               213         213
               214         214
               215         215
               216         216
               217         217
               218         218
               219         219
               220         220
               221         221
               222         222
               223         223
               224         224
               225         225
               226         226
               227         227
               228         228
               229         229
               230         230
               231         231
               232         232
               233         233
               234         234
               235         235
               236         236
               237         237
               238         238
               239         239
               240         240
               241         241
               242         242
               243         243
               244         244
               245         245
               246         246
               247         247
               248         248
               249         249
               250         250
               251         251
               252         252
               253         253
               254         254

----------------------------------------------------------------------------------------

 
 
 KPOINTS: Automatic generation                    

Automatic generation of k-mesh.
 Grid dimensions read from file:
 generate k-points for:    2    2    1

 Generating k-lattice:

  Cartesian coordinates                     Fractional coordinates (reciprocal lattice)
     0.000000000 -0.033011533  0.019059217     0.500000000 -0.000000000  0.000000000
     0.000000000  0.000000000 -0.038118435     0.000000000  0.500000000  0.000000000
     0.034482759  0.000000000  0.000000000     0.000000000  0.000000000  1.000000000

  Length of vectors
     0.038118435  0.038118435  0.034482759

  Shift w.r.t. Gamma in fractional coordinates (k-lattice)
     0.000000000  0.000000000  0.000000000

 
 Subroutine IBZKPT returns following result:
 ===========================================
 
 Found      3 irreducible k-points:
 
 Following reciprocal coordinates:
            Coordinates               Weight
  0.000000  0.000000  0.000000      1.000000
  0.500000  0.000000  0.000000      1.000000
  0.500000  0.500000  0.000000      2.000000
 
 Following cartesian coordinates:
            Coordinates               Weight
  0.000000 -0.000000 -0.000000      1.000000
  0.000000 -0.033012  0.019059      1.000000
  0.000000 -0.033012 -0.019059      2.000000
 


--------------------------------------------------------------------------------------------------------




 Dimension of arrays:
   k-points           NKPTS =      3   k-points in BZ     NKDIM =      3   number of bands    NBANDS=   1519
   number of dos      NEDOS =    301   number of ions     NIONS =    254
   non local maximal  LDIM  =      8   non local SUM 2l+1 LMDIM =     25
   total plane-waves  NPLWV = 686000
   max r-space proj   IRMAX =   4917   max aug-charges    IRDMAX=   4059
   dimension x,y,z NGX =    70 NGY =   70 NGZ =  140
   dimension x,y,z NGXF=   140 NGYF=  140 NGZF=  280
   support grid    NGXF=   140 NGYF=  140 NGZF=  280
   ions per type =             252   2
   NGX,Y,Z   is equivalent  to a cutoff of   7.68,  7.68,  8.03 a.u.
   NGXF,Y,Z  is equivalent  to a cutoff of  15.37, 15.37, 16.05 a.u.

 SYSTEM =  NiAl                                    
 POSCAR =  New structure                           

 Startparameter for this run:
   NWRITE =      2    write-flag & timer
   PREC   = normal    normal or accurate (medium, high low for compatibility)
   ISTART =      0    job   : 0-new  1-cont  2-samecut
   ICHARG =      2    charge: 1-file 2-atom 10-const
   ISPIN  =      1    spin polarized calculation?
   LNONCOLLINEAR =      F non collinear calculations
   LSORBIT =      F    spin-orbit coupling
   INIWAV =      1    electr: 0-lowe 1-rand  2-diag
   LASPH  =      F    aspherical Exc in radial PAW
 Electronic Relaxation 1
   ENCUT  =  360.0 eV  26.46 Ry    5.14 a.u.  23.43 23.43 44.86*2*pi/ulx,y,z
   ENINI  =  360.0     initial cutoff
   ENAUG  = 1139.6 eV  augmentation charge cutoff
   NELM   =    250;   NELMIN=  6; NELMDL= -5     # of ELM steps 
   EDIFF  = 0.5E-05   stopping-criterion for ELM
   LREAL  =      T    real-space projection
   NLSPLINE    = F    spline interpolate recip. space projectors
   LCOMPAT=      F    compatible to vasp.4.4
   GGA_COMPAT  = T    GGA compatible to vasp.4.4-vasp.4.6
   LMAXPAW     = -100 max onsite density
   LMAXMIX     =    2 max onsite mixed and CHGCAR
   VOSKOWN=      0    Vosko Wilk Nusair interpolation
   ROPT   =   -0.00050  -0.00050
 Ionic relaxation
   EDIFFG = 0.5E-04   stopping-criterion for IOM
   NSW    =      0    number of steps for IOM
   NBLOCK =      1;   KBLOCK =      1    inner block; outer block 
   IBRION =     -1    ionic relax: 0-MD 1-quasi-New 2-CG
   NFREE  =      0    steps in history (QN), initial steepest desc. (CG)
   ISIF   =      2    stress and relaxation
   IWAVPR =     10    prediction:  0-non 1-charg 2-wave 3-comb
   ISYM   =      2    0-nonsym 1-usesym 2-fastsym
   LCORR  =      T    Harris-Foulkes like correction to forces

   POTIM  = 0.5000    time-step for ionic-motion
   TEIN   =    0.0    initial temperature
   TEBEG  =    0.0;   TEEND  =   0.0 temperature during run
   SMASS  =  -3.00    Nose mass-parameter (am)
   estimated Nose-frequenzy (Omega)   =  0.10E-29 period in steps = 0.13E+47 mass=  -0.524E-26a.u.
   SCALEE = 1.0000    scale energy and forces
   NPACO  =    256;   APACO  = 16.0  distance and # of slots for P.C.
   PSTRESS=    0.0 pullay stress

  Mass of Ions in am
   POMASS =  58.69 16.00
  Ionic Valenz
   ZVAL   =  10.00  6.00
  Atomic Wigner-Seitz radii
   RWIGS  =  -1.00 -1.00
  virtual crystal weights 
   VCA    =   1.00  1.00
   NELECT =    2532.0000    total number of electrons
   NUPDOWN=      -1.0000    fix difference up-down

 DOS related values:
   EMIN   =  10.00;   EMAX   =-10.00  energy-range for DOS
   EFERMI =   0.00
   ISMEAR =     0;   SIGMA  =   0.05  broadening in eV -4-tet -1-fermi 0-gaus

 Electronic relaxation 2 (details)
   IALGO  =     38    algorithm
   LDIAG  =      T    sub-space diagonalisation (order eigenvalues)
   LSUBROT=      F    optimize rotation matrix (better conditioning)
   TURBO    =      0    0=normal 1=particle mesh
   IRESTART =      0    0=no restart 2=restart with 2 vectors
   NREBOOT  =      0    no. of reboots
   NMIN     =      0    reboot dimension
   EREF     =   0.00    reference energy to select bands
   IMIX   =      4    mixing-type and parameters
     AMIX     =   0.40;   BMIX     =  1.00
     AMIX_MAG =   1.60;   BMIX_MAG =  1.00
     AMIN     =   0.10
     WC   =   100.;   INIMIX=   1;  MIXPRE=   1;  MAXMIX= -45

 Intra band minimization:
   WEIMIN = 0.0000     energy-eigenvalue tresh-hold
   EBREAK =  0.82E-09  absolut break condition
[...]
     13.05800      0.00000      0.00000        -0.135394      0.006293     -0.001964
     13.05800    -17.67059     -4.37234        -0.131149     -0.000802     -0.000746
     13.05800    -20.19496     -8.74468        -0.138240     -0.011222      0.005262
     13.05800     -5.04874      0.00000        -0.129974     -0.002147     -0.003474
     13.05800     -7.57311     -4.37234        -0.114539     -0.003665     -0.004042
     13.05800    -10.09748     -8.74468        -0.360979     -0.050841     -0.102816
     13.05800    -10.09748      0.00000        -0.136180     -0.000062      0.005790
     13.05800    -12.62185     -4.37234        -0.174018     -0.012186      0.032843
     13.05800    -15.14622     -8.74468        -0.143940      0.030720      0.008487
     15.05437     -2.52437     -1.45745        -0.109111     -0.004438     -0.004300
     15.05437     -5.04874     -5.82978        -0.137475     -0.010646     -0.007700
     15.05437     -7.57311    -10.20212        -0.149707      0.006076      0.004828
     15.05437     -7.57311     -1.45745        -0.129274      0.007650      0.009660
     15.05437    -10.09748     -5.82978        -1.740589      1.847991      3.223880
     15.05437    -12.62185    -10.20212        -0.200620     -0.069646     -0.138450
     15.05437    -12.62185     -1.45745        -0.120961     -0.006568     -0.015727
     15.05437    -15.14622     -5.82978        -0.149455     -0.013915      0.011796
     15.05437    -17.67059    -10.20212        -0.119218     -0.001067      0.002735
      3.02601     -6.31093     -3.64361         0.134348     -0.006154     -0.003345
      3.02601     -8.83530     -8.01595         0.125725      0.013757     -0.007943
      3.02601    -11.35967    -12.38829         0.134348     -0.000180      0.007002
      3.02601    -11.35967     -3.64361         0.125087      0.000094      0.014507
      3.02601    -13.88404     -8.01595         0.125087     -0.012517     -0.007335
      3.02601    -16.40841    -12.38829         0.126871     -0.005616      0.003242
      3.02601    -16.40841     -3.64361         0.130644      0.005556     -0.003208
      3.02601    -18.93278     -8.01595         0.119976     -0.000115     -0.004797
      3.02601    -21.45715    -12.38829         0.119976      0.004097      0.002498
      5.02238     -8.83530     -5.10106         0.122759      0.003195      0.001538
      5.02238    -11.35967     -9.47340         0.122759      0.000266     -0.003536
      5.02238     -6.31093     -0.72872         0.129077      0.003563     -0.002057
      5.02238    -13.88404     -5.10106         0.126705     -0.003397      0.001961
      5.02238    -16.40841     -9.47340         0.126189      0.001651      0.000443
      5.02238    -11.35967     -0.72872         0.126189      0.000441     -0.001651
      5.02238     -3.78656     -5.10106         0.130790     -0.000578      0.003642
      5.02238     -6.31093     -9.47340         0.123621     -0.002810      0.001622
      5.02238     -1.26219     -0.72872         0.130790     -0.003443     -0.001321
      7.03247    -11.35967     -6.55851         0.000733     -0.000216      0.000124
      7.03247    -13.88404    -10.93084         0.001970     -0.006862      0.001059
      7.03247     -8.83530     -2.18617         0.001970     -0.004348      0.005413
      7.03247    -16.40841     -6.55851         0.002266     -0.000969     -0.003515
      7.03247    -18.93278    -10.93084         0.006266      0.001148     -0.000663
      7.03247    -13.88404     -2.18617         0.002266      0.002559      0.002597
      7.03247     -6.31093     -6.55851         0.003722     -0.000556     -0.001893
      7.03247     -8.83530    -10.93084         0.003722      0.001362      0.001428
      7.03247     -3.78656     -2.18617         0.010600     -0.000689      0.000398
      9.04019    -13.88404     -8.01595        -0.001956     -0.004815     -0.003259
      9.04019    -16.40841    -12.38829        -0.014412     -0.000607      0.000350
      9.04019    -11.35967     -3.64361        -0.001956      0.000415      0.005800
      9.04019    -18.93278     -8.01595        -0.014751     -0.000696     -0.004048
      9.04019    -21.45715    -12.38829        -0.014751      0.003158      0.002627
      9.04019    -16.40841     -3.64361         0.004727      0.001193     -0.000689
      9.04019     -8.83530     -8.01595         0.007702      0.005177     -0.002989
      9.04019    -11.35967    -12.38829         0.004828      0.000026     -0.001084
      9.04019     -6.31093     -3.64361         0.004828      0.000952      0.000520
     11.04791    -16.40841     -9.47340         0.001128      0.005591      0.001404
     11.04791    -11.35967     -0.72872         0.001128      0.001579     -0.005544
     11.04791    -13.88404     -5.10106         0.017226     -0.001578      0.000911
     11.04791     -6.31093     -9.47340        -0.031800      0.025832     -0.014914
     11.04791     -1.26219     -0.72872         0.008307      0.002328      0.004490
     11.04791     -3.78656     -5.10106         0.008307     -0.002724     -0.004261
     11.04791    -11.35967     -9.47340         0.004398     -0.011442      0.007996
     11.04791     -6.31093     -0.72872         0.011495     -0.003289      0.001899
     11.04791     -8.83530     -5.10106         0.004398     -0.012646      0.005912
     13.05800    -18.93278    -10.93084        -0.135787      0.001405     -0.000811
     13.05800    -13.88404     -2.18617        -0.125986      0.001050     -0.002473
     13.05800    -16.40841     -6.55851        -0.125986      0.002667      0.000327
     13.05800     -8.83530    -10.93084        -0.111775     -0.004299      0.018444
     13.05800     -3.78656     -2.18617        -0.138010      0.000403     -0.000233
     13.05800     -6.31093     -6.55851        -0.111775     -0.018123     -0.005499
     13.05800    -13.88404    -10.93084        -0.127875      0.009165      0.005338
     13.05800     -8.83530     -2.18617        -0.127875     -0.000040     -0.010606
     13.05800    -11.35967     -6.55851        -0.913229     -0.067076      0.038726
     15.05437    -21.45715    -12.38829        -0.131037      0.002178      0.001210
     15.05437    -16.40841     -3.64361        -0.117730     -0.000078      0.000045
     15.05437    -18.93278     -8.01595        -0.131037      0.000040     -0.002491
     15.05437    -11.35967    -12.38829        -0.125230      0.002027      0.016741
     15.05437     -6.31093     -3.64361        -0.125230     -0.013484     -0.010126
     15.05437     -8.83530     -8.01595        -0.786812      1.792893     -1.035127
     15.05437    -16.40841    -12.38829        -0.135740     -0.004354      0.002514
     15.05437    -11.35967     -3.64361        -0.311641     -0.005509      0.393071
     15.05437    -13.88404     -8.01595        -0.311641     -0.343164     -0.191764
      3.02601     -7.57311     -5.82978         0.133168     -0.000004      0.008424
      3.02601    -10.09748    -10.20212         0.133168     -0.007297     -0.004208
      3.02601     -5.04874     -1.45745         0.123671      0.015678     -0.009052
      3.02601    -12.62185     -5.82978         0.119962     -0.004990      0.002881
      3.02601    -15.14622    -10.20212         0.120137     -0.001230      0.019965
      3.02601    -10.09748     -1.45745         0.120137     -0.017905     -0.008917
      3.02601    -17.67059     -5.82978         0.123124      0.006481      0.001848
      3.02601    -20.19496    -10.20212         0.133253      0.007814     -0.004511
      3.02601    -15.14622     -1.45745         0.123124      0.001640     -0.006537
      5.02238    -10.09748     -7.28723         0.127680      0.002003     -0.001157
      5.02238    -12.62185    -11.65957         0.125914      0.003109     -0.001465
      5.02238     -7.57311     -2.91489         0.125914      0.002823     -0.001960
      5.02238    -15.14622     -7.28723         0.129701     -0.000673      0.002071
      5.02238    -17.67059    -11.65957         0.141429      0.001844     -0.001065
      5.02238    -12.62185     -2.91489         0.129701     -0.002130     -0.000453
      5.02238     -5.04874     -7.28723         0.131326     -0.002083      0.001679
      5.02238     -7.57311    -11.65957         0.131326     -0.002496      0.000964
      5.02238     -2.52437     -2.91489         0.128634     -0.001124      0.000649
      7.03247    -12.62185     -8.74468         0.008905     -0.000935      0.000772
      7.03247     -7.57311      0.00000         0.003337     -0.001496      0.000863
      7.03247    -10.09748     -4.37234         0.008905     -0.001136      0.000424
      7.03247    -17.67059     -8.74468         0.006445      0.002686     -0.003767
      7.03247    -12.62185      0.00000         0.006445      0.004605     -0.000443
      7.03247    -15.14622     -4.37234         0.013041      0.001268     -0.000732
      7.03247     -7.57311     -8.74468         0.013416      0.003635     -0.002099
      7.03247     -2.52437      0.00000         0.003839      0.002105      0.000940
      7.03247     -5.04874     -4.37234         0.003839      0.000239     -0.002292
      9.04019    -15.14622    -10.20212        -0.025219     -0.009081      0.010954
      9.04019    -10.09748     -1.45745        -0.025219     -0.014027      0.002387
      9.04019    -12.62185     -5.82978        -0.017591     -0.002027      0.001170
      9.04019    -20.19496    -10.20212        -0.013687      0.007545     -0.004356
      9.04019    -15.14622     -1.45745        -0.012828     -0.001783     -0.000610
      9.04019    -17.67059     -5.82978        -0.012828     -0.000363      0.001849
      9.04019    -10.09748    -10.20212        -0.000747     -0.002665     -0.002637
      9.04019     -5.04874     -1.45745        -0.004424      0.013107     -0.007567
      9.04019     -7.57311     -5.82978        -0.000747      0.000951      0.003627
     11.04791    -17.67059    -11.65957        -0.005411     -0.007339      0.004237
     11.04791    -12.62185     -2.91489        -0.021323      0.005091      0.016742
     11.04791    -15.14622     -7.28723        -0.021323     -0.011953     -0.012779
     11.04791     -7.57311    -11.65957         0.012936      0.001497      0.004858
     11.04791     -2.52437     -2.91489        -0.004771      0.003834     -0.002214
     11.04791     -5.04874     -7.28723         0.012936     -0.003458     -0.003725
     11.04791    -12.62185    -11.65957         0.000610      0.003013      0.008997
     11.04791     -7.57311     -2.91489         0.000610     -0.006285     -0.007108
     11.04791    -10.09748     -7.28723         0.036461      0.010449     -0.006033
     13.05800    -12.62185      0.00000        -0.137432      0.004258      0.002371
     13.05800    -15.14622     -4.37234        -0.140730     -0.000934      0.000539
     13.05800    -17.67059     -8.74468        -0.137432      0.000075     -0.004873
     13.05800     -2.52437      0.00000        -0.131435     -0.000273     -0.000663
     13.05800     -5.04874     -4.37234        -0.131435      0.000438      0.000567
     13.05800     -7.57311     -8.74468        -0.123399     -0.034666      0.020015
     13.05800     -7.57311      0.00000        -0.147121     -0.007465      0.004310
     13.05800    -10.09748     -4.37234        -0.084791      0.037103     -0.007357
     13.05800    -12.62185     -8.74468        -0.084791      0.024922     -0.028454
     15.05437    -15.14622     -1.45745        -0.132958     -0.001728     -0.003809
     15.05437    -17.67059     -5.82978        -0.132958      0.002435      0.003401
     15.05437    -20.19496    -10.20212        -0.111319      0.002815     -0.001625
     15.05437     -5.04874     -1.45745        -0.116437      0.007607     -0.004392
     15.05437     -7.57311     -5.82978        -0.307691      0.334860      0.221966
     15.05437    -10.09748    -10.20212        -0.307691     -0.024798     -0.400980
     15.05437    -10.09748     -1.45745        -0.114251      0.000178     -0.029011
     15.05437    -12.62185     -5.82978        -0.765749     -1.642331      0.948200
     15.05437    -15.14622    -10.20212        -0.114251      0.025214      0.014351
      3.02601     -8.83530     -3.64361         0.132608      0.008392     -0.003486
      3.02601    -11.35967     -8.01595         0.121130      0.000370     -0.005737
      3.02601    -13.88404    -12.38829         0.122277      0.005784      0.003166
      3.02601    -13.88404     -3.64361         0.131912     -0.008779     -0.002791
      3.02601    -16.40841     -8.01595         0.122674      0.016664     -0.009750
      3.02601    -18.93278    -12.38829         0.132505     -0.002066      0.008815
      3.02601     -3.78656     -3.64361         0.122611     -0.000280      0.018481
      3.02601     -6.31093     -8.01595         0.123554     -0.014749     -0.008862
      3.02601     -8.83530    -12.38829         0.121174     -0.003704      0.002156
      5.02238    -11.35967     -5.10106         0.129849      0.000393      0.003034
      5.02238    -13.88404     -9.47340         0.129213     -0.004243     -0.002302
      5.02238     -8.83530     -0.72872         0.127211      0.002016     -0.004924
      5.02238    -16.40841     -5.10106         0.125611      0.004966      0.003308
      5.02238    -18.93278     -9.47340         0.129584     -0.000737      0.003665
      5.02238    -13.88404     -0.72872         0.129188     -0.002610     -0.001194
      5.02238     -6.31093     -5.10106         0.125882     -0.002644      0.003130
      5.02238     -8.83530     -9.47340         0.127137      0.002656     -0.001692
      5.02238     -3.78656     -0.72872         0.127484      0.001777     -0.001645
      7.03247    -13.88404     -6.55851         0.004973      0.000469     -0.001371
      7.03247    -16.40841    -10.93084         0.004862      0.002705      0.004330
      7.03247    -11.35967     -2.18617         0.011110      0.001058      0.008447
      7.03247     -3.78656     -6.55851         0.001853      0.000867     -0.004596
      7.03247     -6.31093    -10.93084         0.001407      0.003913     -0.001425
      7.03247     -1.26219     -2.18617         0.003654      0.002438      0.000592
      7.03247     -8.83530     -6.55851         0.003148      0.000134     -0.002487
      7.03247    -11.35967    -10.93084         0.016173     -0.000882      0.002836
      7.03247     -6.31093     -2.18617         0.006301     -0.002296      0.002093
      9.04019    -16.40841     -8.01595        -0.010780      0.014031     -0.011654
      9.04019    -18.93278    -12.38829         0.001482     -0.002817     -0.000152
      9.04019    -13.88404     -3.64361         0.003073     -0.003610     -0.001186
      9.04019     -6.31093     -8.01595        -0.018596     -0.011921     -0.008564
      9.04019     -8.83530    -12.38829        -0.013538     -0.002394     -0.001587
      9.04019     -3.78656     -3.64361        -0.006957     -0.001505      0.015376
      9.04019    -11.35967     -8.01595        -0.012379     -0.002649     -0.004622
      9.04019    -13.88404    -12.38829        -0.014002      0.002775      0.002373
      9.04019     -8.83530     -3.64361         0.003779      0.007753     -0.004814
     11.04791    -18.93278     -9.47340        -0.001771     -0.002683     -0.004838
     11.04791    -13.88404     -0.72872         0.010545      0.001340      0.002016
     11.04791    -16.40841     -5.10106         0.000611      0.009675     -0.002307
     11.04791     -8.83530     -9.47340        -0.016279      0.032780     -0.001106
     11.04791     -3.78656     -0.72872        -0.004078     -0.000389      0.006103
     11.04791     -6.31093     -5.10106         0.002155     -0.010989      0.001125
     11.04791    -13.88404     -9.47340        -0.028716     -0.033620     -0.007375
     11.04791     -8.83530     -0.72872         0.016247     -0.003741     -0.009733
     11.04791    -11.35967     -5.10106         0.009347      0.002914      0.012305
     13.05800     -6.31093    -10.93084        -0.138240     -0.010168      0.007088
     13.05800     -1.26219     -2.18617        -0.131149      0.000245      0.001067
     13.05800     -3.78656     -6.55851        -0.135394      0.004847     -0.004468
     13.05800    -11.35967    -10.93084        -0.114539      0.001668      0.005195
     13.05800     -6.31093     -2.18617        -0.129974      0.001935      0.003596
     13.05800     -8.83530     -6.55851        -0.360979      0.063621      0.095437
     13.05800    -16.40841    -10.93084        -0.136180     -0.005045     -0.002842
     13.05800    -11.35967     -2.18617        -0.143940      0.008010     -0.030848
     13.05800    -13.88404     -6.55851        -0.174018     -0.034536     -0.005868
     15.05437     -8.83530    -12.38829        -0.137475      0.001346      0.013070
     15.05437     -3.78656     -3.64361        -0.109111      0.001505      0.005994
     15.05437     -6.31093     -8.01595        -0.149707     -0.001143     -0.007676
     15.05437    -13.88404    -12.38829        -0.129274     -0.004541     -0.011456
     15.05437     -8.83530     -3.64361        -0.200620      0.085078      0.129540
     15.05437    -11.35967     -8.01595        -1.740589     -1.867966     -3.212347
     15.05437    -18.93278    -12.38829        -0.119218     -0.002902     -0.000443
     15.05437    -13.88404     -3.64361        -0.149455     -0.017173      0.006153
     15.05437    -16.40841     -8.01595        -0.120961      0.010336      0.013551
     16.05000    -11.35967     -6.55851         3.454986     -7.035667      4.062044
     16.05000    -10.09748     -7.28723         3.412195      6.993218     -4.037537
 -----------------------------------------------------------------------------------
    total drift:                               -0.216542      0.009149      0.028771


--------------------------------------------------------------------------------------------------------



  FREE ENERGIE OF THE ION-ELECTRON SYSTEM (eV)
  ---------------------------------------------------
  free  energy   TOTEN  =     -1422.97512337 eV

  energy  without entropy=    -1421.51452270  energy(sigma->0) =    -1422.24482304
 


--------------------------------------------------------------------------------------------------------


    POTLOK:  cpu time    0.6071: real time    0.6071


--------------------------------------------------------------------------------------------------------


 stress matrix after NEB project (eV)
   -164.35784      0.02626     -0.01516
      0.02629   -308.66810     -3.83355
     -0.01518     -3.83355   -313.09470
  FORCES: max atom, RMS     8.828235    0.891867
  FORCE total and by dimension   14.214018    7.035667
  Stress total and by dimension  469.411529  313.094705
     LOOP+:  cpu time 2787.3366: real time 2787.6624
    4ORBIT:  cpu time    0.0000: real time    0.0000

 total amount of memory used by VASP MPI-rank0  7648591. kBytes
=======================================================================

   base      :      30000. kBytes
   nonlr-proj:     105748. kBytes
   fftplans  :     187996. kBytes
   grid      :     336414. kBytes
   one-center:       7620. kBytes
   wavefun   :    6980813. kBytes
 
  
  
 General timing and accounting informations for this job:
 ========================================================
  
                  Total CPU time used (sec):     2819.964
                            User time (sec):     2806.033
                          System time (sec):       13.931
                         Elapsed time (sec):     2821.052
  
                   Maximum memory used (kb):     9425940.
                   Average memory used (kb):          N/A
  
                          Minor page faults:     18572653
                          Major page faults:            0
                 Voluntary context switches:        33076
