 running on    1 total cores
 distrk:  each k-point on    1 cores,    1 groups
 distr:  one band on    1 cores,    1 groups
 OpenACC runtime initialized ...    1 GPUs detected
 vasp.6.2.1 16May21 (build Jun 16 2021 03:23:30) complex                         
 POSCAR found type information on POSCAR NiO 
 POSCAR found :  2 types and     254 ions
 scaLAPACK will be used selectively (only on CPU)
 LDA part: xc-table for Pade appr. of Perdew
 POSCAR found type information on POSCAR NiO 
 POSCAR found :  2 types and     254 ions
 POSCAR, INCAR and KPOINTS ok, starting setup
 FFT: planning ...
 WAVECAR not read
 entering main loop
       N       E                     dE             d eps       ncg     rms          rms(c)
DAV:   1     0.223924790817E+05    0.22392E+05   -0.98593E+05  9146   0.134E+03
DAV:   2     0.110652599214E+03   -0.22282E+05   -0.21286E+05  9114   0.469E+02
DAV:   3    -0.133353587049E+04   -0.14442E+04   -0.12175E+04 10332   0.131E+02
DAV:   4    -0.155843359071E+04   -0.22490E+03   -0.19209E+03 16300   0.491E+01
DAV:   5    -0.157007690986E+04   -0.11643E+02   -0.10991E+02 15572   0.117E+01    0.146E+02
DAV:   6    -0.199102398422E+04   -0.42095E+03   -0.27207E+03 12324   0.181E+02    0.317E+02
DAV:   7    -0.167238563641E+04    0.31864E+03   -0.98456E+02  9716   0.129E+02    0.227E+02
DAV:   8    -0.161774733969E+04    0.54638E+02   -0.77236E+02 12212   0.127E+02    0.213E+02
DAV:   9    -0.242790208198E+04   -0.81015E+03   -0.32844E+02 10116   0.182E+02    0.333E+02
DAV:  10    -0.163543780302E+04    0.79246E+03   -0.33911E+02 11964   0.847E+01    0.189E+02
DAV:  11    -0.155624498501E+04    0.79193E+02   -0.23855E+02 10956   0.115E+02    0.197E+02
DAV:  12    -0.153804358508E+04    0.18201E+02   -0.20785E+02  9956   0.762E+01    0.177E+02
DAV:  13    -0.163078808257E+04   -0.92744E+02   -0.17438E+02  9716   0.831E+01    0.223E+02
DAV:  14    -0.152614768754E+04    0.10464E+03   -0.12027E+02  9556   0.528E+01    0.155E+02
DAV:  15    -0.151458682596E+04    0.11561E+02   -0.97972E+01  9556   0.643E+01    0.175E+02
DAV:  16    -0.147245670638E+04    0.42130E+02   -0.77128E+01  9508   0.550E+01    0.167E+02
DAV:  17    -0.142023315569E+04    0.52224E+02   -0.57519E+01  9596   0.432E+01    0.153E+02
DAV:  18    -0.136278644810E+04    0.57447E+02   -0.40824E+01  9524   0.377E+01    0.993E+01
DAV:  19    -0.134527077753E+04    0.17516E+02   -0.22815E+01  9948   0.212E+01    0.795E+01
DAV:  20    -0.134672862948E+04   -0.14579E+01   -0.15813E+01  9956   0.223E+01    0.832E+01
DAV:  21    -0.134039057409E+04    0.63381E+01   -0.13986E+01  9940   0.210E+01    0.720E+01
DAV:  22    -0.133436283546E+04    0.60277E+01   -0.87545E+00  9908   0.168E+01    0.532E+01
DAV:  23    -0.133384616752E+04    0.51667E+00   -0.62151E+00  9860   0.155E+01    0.520E+01
DAV:  24    -0.133164260435E+04    0.22036E+01   -0.50608E+00  9900   0.140E+01    0.445E+01
DAV:  25    -0.133199358534E+04   -0.35098E+00   -0.35817E+00  9876   0.121E+01    0.513E+01
DAV:  26    -0.133053299235E+04    0.14606E+01   -0.27699E+00  9924   0.100E+01    0.460E+01
DAV:  27    -0.132981113423E+04    0.72186E+00   -0.26500E+00  9940   0.969E+00    0.384E+01
DAV:  28    -0.133330468199E+04   -0.34935E+01   -0.33288E+00 10004   0.118E+01    0.494E+01
DAV:  29    -0.133379518182E+04   -0.49050E+00   -0.39015E+00  9988   0.131E+01    0.531E+01
DAV:  30    -0.133720724559E+04   -0.34121E+01   -0.37378E+00  9964   0.132E+01    0.683E+01
DAV:  31    -0.133186435294E+04    0.53429E+01   -0.34225E+00  9988   0.122E+01    0.475E+01
DAV:  32    -0.133049917065E+04    0.13652E+01   -0.26848E+00  9956   0.105E+01    0.443E+01
DAV:  33    -0.132869727026E+04    0.18019E+01   -0.23703E+00  9940   0.919E+00    0.342E+01
DAV:  34    -0.132820585600E+04    0.49141E+00   -0.18370E+00 10004   0.827E+00    0.321E+01
DAV:  35    -0.132758808410E+04    0.61777E+00   -0.14798E+00 10004   0.724E+00    0.283E+01
DAV:  36    -0.132711047225E+04    0.47761E+00   -0.13011E+00  9964   0.688E+00    0.229E+01
DAV:  37    -0.132667928865E+04    0.43118E+00   -0.11082E+00 10004   0.652E+00    0.197E+01
DAV:  38    -0.132643882808E+04    0.24046E+00   -0.97312E-01  9948   0.612E+00    0.170E+01
DAV:  39    -0.132642020097E+04    0.18627E-01   -0.78414E-01  9940   0.585E+00    0.166E+01
DAV:  40    -0.132620340067E+04    0.21680E+00   -0.49572E-01  9956   0.414E+00    0.146E+01
DAV:  41    -0.132592332452E+04    0.28008E+00   -0.30296E-01  9996   0.304E+00    0.115E+01
DAV:  42    -0.132575063805E+04    0.17269E+00   -0.14586E-01  9988   0.207E+00    0.949E+00
DAV:  43    -0.132570326889E+04    0.47369E-01   -0.87854E-02 10068   0.161E+00    0.833E+00
DAV:  44    -0.132575801095E+04   -0.54742E-01   -0.12927E-01 10012   0.202E+00    0.942E+00
DAV:  45    -0.132572907344E+04    0.28938E-01   -0.10518E-01 10068   0.176E+00    0.890E+00
DAV:  46    -0.132578054948E+04   -0.51476E-01   -0.93146E-02 10028   0.172E+00    0.108E+01
DAV:  47    -0.132563060413E+04    0.14995E+00   -0.94459E-02 10044   0.163E+00    0.578E+00
DAV:  48    -0.132559792637E+04    0.32678E-01   -0.44766E-02 10084   0.122E+00    0.492E+00
DAV:  49    -0.132562390915E+04   -0.25983E-01   -0.42490E-02 10068   0.118E+00    0.585E+00
DAV:  50    -0.132562934203E+04   -0.54329E-02   -0.34493E-02 10060   0.111E+00    0.644E+00
DAV:  51    -0.132571763925E+04   -0.88297E-01   -0.10130E-01 15140   0.157E+00    0.954E+00
DAV:  52    -0.132562147891E+04    0.96160E-01   -0.58956E-02 11948   0.126E+00    0.632E+00
DAV:  53    -0.132559984771E+04    0.21631E-01   -0.44323E-02 11692   0.116E+00    0.528E+00
DAV:  54    -0.132558379637E+04    0.16051E-01   -0.45566E-02 11660   0.116E+00    0.440E+00
DAV:  55    -0.132558641850E+04   -0.26221E-02   -0.39556E-02 11716   0.117E+00    0.400E+00
DAV:  56    -0.132560035441E+04   -0.13936E-01   -0.66251E-02 11660   0.146E+00    0.484E+00
DAV:  57    -0.132556320238E+04    0.37152E-01   -0.40970E-02 11220   0.118E+00    0.320E+00
DAV:  58    -0.132555604123E+04    0.71611E-02   -0.19213E-02 11092   0.791E-01    0.270E+00
DAV:  59    -0.132555451929E+04    0.15219E-02   -0.15104E-02 10796   0.732E-01    0.228E+00
DAV:  60    -0.132555189663E+04    0.26227E-02   -0.11770E-02 10788   0.650E-01    0.215E+00
DAV:  61    -0.132556842067E+04   -0.16524E-01   -0.19256E-02 11028   0.815E-01    0.307E+00
DAV:  62    -0.132554707392E+04    0.21347E-01   -0.14846E-02 10788   0.717E-01    0.130E+00
DAV:  63    -0.132554457974E+04    0.24942E-02   -0.37910E-03 10468   0.334E-01    0.850E-01
DAV:  64    -0.132554488710E+04   -0.30737E-03   -0.20347E-03 10252   0.251E-01    0.883E-01
DAV:  65    -0.132554474750E+04    0.13960E-03   -0.14440E-03 10132   0.206E-01    0.666E-01
DAV:  66    -0.132555059333E+04   -0.58458E-02   -0.37528E-03 10700   0.380E-01    0.158E+00
DAV:  67    -0.132554538515E+04    0.52082E-02   -0.31237E-03 10452   0.345E-01    0.526E-01
DAV:  68    -0.132554513693E+04    0.24822E-03   -0.62609E-04 10036   0.144E-01    0.339E-01
DAV:  69    -0.132554572732E+04   -0.59039E-03   -0.41525E-04 10060   0.116E-01    0.370E-01
DAV:  70    -0.132554626448E+04   -0.53716E-03   -0.35424E-04  9988   0.104E-01    0.413E-01
DAV:  71    -0.132554660952E+04   -0.34505E-03   -0.34872E-04 10108   0.108E-01    0.465E-01
DAV:  72    -0.132554667666E+04   -0.67132E-04   -0.30726E-04 10068   0.970E-02    0.346E-01
DAV:  73    -0.132554673616E+04   -0.59500E-04   -0.15226E-04 10028   0.668E-02    0.152E-01
DAV:  74    -0.132554707157E+04   -0.33541E-03   -0.88856E-05 10356   0.477E-02    0.189E-01
DAV:  75    -0.132554737537E+04   -0.30380E-03   -0.85413E-05  9996   0.474E-02    0.205E-01
DAV:  76    -0.132554769846E+04   -0.32309E-03   -0.12293E-04 10124   0.629E-02    0.258E-01
DAV:  77    -0.132554760723E+04    0.91228E-04   -0.89140E-05  9924   0.513E-02    0.923E-02
DAV:  78    -0.132554785415E+04   -0.24692E-03   -0.40888E-05  9020   0.310E-02    0.121E-01
DAV:  79    -0.132554825613E+04   -0.40198E-03   -0.44894E-05  9068   0.336E-02    0.161E-01
DAV:  80    -0.132554851734E+04   -0.26121E-03   -0.41940E-05  9292   0.313E-02    0.146E-01
DAV:  81    -0.132554819473E+04    0.32262E-03   -0.41088E-05  8772   0.381E-02    0.160E-01
DAV:  82    -0.132554841639E+04   -0.22167E-03   -0.38852E-05  8076   0.351E-02    0.113E-01
DAV:  83    -0.132554869057E+04   -0.27418E-03   -0.29538E-05  7420   0.274E-02    0.917E-02
DAV:  84    -0.132554904851E+04   -0.35793E-03   -0.42274E-05 10188   0.259E-02    0.697E-02
DAV:  85    -0.132554921224E+04   -0.16373E-03   -0.20092E-05  7364   0.218E-02    0.677E-02
DAV:  86    -0.132554929336E+04   -0.81128E-04   -0.21717E-05  7516   0.250E-02    0.845E-02
DAV:  87    -0.132554938586E+04   -0.92502E-04   -0.20545E-05  7132   0.233E-02    0.679E-02
DAV:  88    -0.132554947168E+04   -0.85812E-04   -0.14606E-05  6908   0.166E-02    0.562E-02
DAV:  89    -0.132554952229E+04   -0.50613E-04   -0.10098E-05  6292   0.145E-02    0.520E-02
DAV:  90    -0.132554961004E+04   -0.87746E-04   -0.18279E-05  7460   0.157E-02    0.509E-02
DAV:  91    -0.132554952373E+04    0.86307E-04   -0.19230E-05  6413   0.235E-02    0.830E-02
DAV:  92    -0.132554962649E+04   -0.10276E-03   -0.19574E-05  6501   0.218E-02    0.458E-02
DAV:  93    -0.132554965044E+04   -0.23945E-04   -0.11971E-05  6804   0.132E-02    0.374E-02
DAV:  94    -0.132554965940E+04   -0.89661E-05   -0.54232E-06  5525   0.931E-03    0.243E-02
DAV:  95    -0.132554967197E+04   -0.12567E-04   -0.36061E-06  5268   0.820E-03    0.282E-02
DAV:  96    -0.132554969228E+04   -0.20310E-04   -0.77978E-06  5454   0.168E-02    0.721E-02
DAV:  97    -0.132554968328E+04    0.89977E-05   -0.82738E-06  5532   0.162E-02    0.278E-02
DAV:  98    -0.132554968823E+04   -0.49481E-05   -0.26948E-06  5678   0.666E-03
   1 F= -.14229751E+04 E0= -.14222448E+04  d E =-.146060E+01
