 254 254   0   0
  0.3019211E+02  0.1718057E-08  0.1718057E-08  0.3000000E-08  0.5000000E-15
   1.0000000000000000E-004
  CAR 
 NiAl                                    
      5.51891104    -25.08980660  301      1.78207094      1.00000000
    -25.090  0.0000E+00  0.0000E+00
    -24.988  0.0000E+00  0.0000E+00
    -24.886  0.0000E+00  0.0000E+00
    -24.784  0.0000E+00  0.0000E+00
    -24.682  0.0000E+00  0.0000E+00
    -24.580  0.0000E+00  0.0000E+00
    -24.478  0.0000E+00  0.0000E+00
    -24.376  0.0000E+00  0.0000E+00
    -24.274  0.0000E+00  0.0000E+00
    -24.172  0.0000E+00  0.0000E+00
    -24.070  0.0000E+00  0.0000E+00
    -23.967  0.2527E-12  0.2578E-13
    -23.865  0.2177E-04  0.2221E-05
    -23.763  0.6354E+00  0.6483E-01
    -23.661  0.1604E+02  0.1701E+01
    -23.559  0.2926E+01  0.2000E+01
    -23.457  0.8497E-03  0.2000E+01
    -23.355  0.9508E-10  0.2000E+01
    -23.253  0.0000E+00  0.2000E+01
    -23.151  0.0000E+00  0.2000E+01
    -23.049  0.0000E+00  0.2000E+01
    -22.947  0.0000E+00  0.2000E+01
    -22.845  0.0000E+00  0.2000E+01
    -22.743  0.0000E+00  0.2000E+01
    -22.641  0.0000E+00  0.2000E+01
    -22.539  0.0000E+00  0.2000E+01
    -22.437  0.0000E+00  0.2000E+01
    -22.335  0.0000E+00  0.2000E+01
    -22.233  0.0000E+00  0.2000E+01
    -22.131  0.0000E+00  0.2000E+01
    -22.029  0.0000E+00  0.2000E+01
    -21.927  0.0000E+00  0.2000E+01
    -21.825  0.0000E+00  0.2000E+01
    -21.723  0.0000E+00  0.2000E+01
    -21.621  0.0000E+00  0.2000E+01
    -21.519  0.0000E+00  0.2000E+01
    -21.417  0.0000E+00  0.2000E+01
    -21.315  0.0000E+00  0.2000E+01
    -21.213  0.0000E+00  0.2000E+01
    -21.111  0.0000E+00  0.2000E+01
    -21.009  0.0000E+00  0.2000E+01
    -20.907  0.0000E+00  0.2000E+01
    -20.805  0.0000E+00  0.2000E+01
    -20.703  0.0000E+00  0.2000E+01
    -20.601  0.0000E+00  0.2000E+01
    -20.498  0.0000E+00  0.2000E+01
    -20.396  0.0000E+00  0.2000E+01
    -20.294  0.0000E+00  0.2000E+01
    -20.192  0.0000E+00  0.2000E+01
    -20.090  0.0000E+00  0.2000E+01
    -19.988  0.0000E+00  0.2000E+01
    -19.886  0.0000E+00  0.2000E+01
    -19.784  0.0000E+00  0.2000E+01
    -19.682  0.0000E+00  0.2000E+01
    -19.580  0.0000E+00  0.2000E+01
    -19.478  0.0000E+00  0.2000E+01
    -19.376  0.0000E+00  0.2000E+01
    -19.274  0.0000E+00  0.2000E+01
    -19.172  0.0000E+00  0.2000E+01
    -19.070  0.0000E+00  0.2000E+01
    -18.968  0.0000E+00  0.2000E+01
    -18.866  0.0000E+00  0.2000E+01
    -18.764  0.0000E+00  0.2000E+01
    -18.662  0.0000E+00  0.2000E+01
    -18.560  0.0000E+00  0.2000E+01
    -18.458  0.0000E+00  0.2000E+01
    -18.356  0.0000E+00  0.2000E+01
    -18.254  0.0000E+00  0.2000E+01
    -18.152  0.0000E+00  0.2000E+01
    -18.050  0.0000E+00  0.2000E+01
    -17.948  0.0000E+00  0.2000E+01
    -17.846  0.0000E+00  0.2000E+01
    -17.744  0.0000E+00  0.2000E+01
    -17.642  0.0000E+00  0.2000E+01
    -17.540  0.0000E+00  0.2000E+01
    -17.438  0.0000E+00  0.2000E+01
    -17.336  0.0000E+00  0.2000E+01
    -17.234  0.0000E+00  0.2000E+01
    -17.132  0.0000E+00  0.2000E+01
    -17.030  0.0000E+00  0.2000E+01
    -16.927  0.0000E+00  0.2000E+01
    -16.825  0.0000E+00  0.2000E+01
    -16.723  0.0000E+00  0.2000E+01
    -16.621  0.0000E+00  0.2000E+01
    -16.519  0.0000E+00  0.2000E+01
    -16.417  0.0000E+00  0.2000E+01
    -16.315  0.0000E+00  0.2000E+01
    -16.213  0.0000E+00  0.2000E+01
    -16.111  0.0000E+00  0.2000E+01
    -16.009  0.0000E+00  0.2000E+01
    -15.907  0.0000E+00  0.2000E+01
    -15.805  0.0000E+00  0.2000E+01
    -15.703  0.0000E+00  0.2000E+01
    -15.601  0.0000E+00  0.2000E+01
    -15.499  0.0000E+00  0.2000E+01
    -15.397  0.0000E+00  0.2000E+01
    -15.295  0.0000E+00  0.2000E+01
    -15.193  0.0000E+00  0.2000E+01
    -15.091  0.0000E+00  0.2000E+01
    -14.989  0.0000E+00  0.2000E+01
    -14.887  0.0000E+00  0.2000E+01
    -14.785  0.0000E+00  0.2000E+01
    -14.683  0.0000E+00  0.2000E+01
    -14.581  0.0000E+00  0.2000E+01
    -14.479  0.0000E+00  0.2000E+01
    -14.377  0.0000E+00  0.2000E+01
    -14.275  0.0000E+00  0.2000E+01
    -14.173  0.0000E+00  0.2000E+01
    -14.071  0.0000E+00  0.2000E+01
    -13.969  0.0000E+00  0.2000E+01
    -13.867  0.0000E+00  0.2000E+01
    -13.765  0.0000E+00  0.2000E+01
    -13.663  0.0000E+00  0.2000E+01
    -13.561  0.0000E+00  0.2000E+01
    -13.458  0.0000E+00  0.2000E+01
    -13.356  0.0000E+00  0.2000E+01
    -13.254  0.0000E+00  0.2000E+01
    -13.152  0.0000E+00  0.2000E+01
    -13.050  0.0000E+00  0.2000E+01
    -12.948  0.0000E+00  0.2000E+01
    -12.846  0.0000E+00  0.2000E+01
    -12.744  0.0000E+00  0.2000E+01
    -12.642  0.1632E-13  0.2000E+01
    -12.540  0.3721E-05  0.2000E+01
    -12.438  0.2774E+00  0.2028E+01
    -12.336  0.1454E+02  0.3512E+01
    -12.234  0.4784E+01  0.4000E+01
    -12.132  0.3386E-02  0.4000E+01
    -12.030  0.9969E-09  0.4000E+01
    -11.928  0.0000E+00  0.4000E+01
    -11.826  0.0000E+00  0.4000E+01
    -11.724  0.0000E+00  0.4000E+01
    -11.622  0.0000E+00  0.4000E+01
    -11.520  0.0000E+00  0.4000E+01
    -11.418  0.0000E+00  0.4000E+01
    -11.316  0.0000E+00  0.4000E+01
    -11.214  0.0000E+00  0.4000E+01
    -11.112  0.0000E+00  0.4000E+01
    -11.010  0.0000E+00  0.4000E+01
    -10.908  0.0000E+00  0.4000E+01
    -10.806  0.0000E+00  0.4000E+01
    -10.704  0.0000E+00  0.4000E+01
    -10.602  0.0000E+00  0.4000E+01
    -10.500  0.0000E+00  0.4000E+01
    -10.398  0.0000E+00  0.4000E+01
    -10.296  0.0000E+00  0.4000E+01
    -10.194  0.0000E+00  0.4000E+01
    -10.092  0.0000E+00  0.4000E+01
     -9.990  0.0000E+00  0.4000E+01
     -9.887  0.0000E+00  0.4000E+01
     -9.785  0.0000E+00  0.4000E+01
     -9.683  0.0000E+00  0.4000E+01
     -9.581  0.0000E+00  0.4000E+01
     -9.479  0.0000E+00  0.4000E+01
     -9.377  0.1589E-09  0.4000E+01
     -9.275  0.6519E-03  0.4000E+01
     -9.173  0.1095E+01  0.4112E+01
     -9.071  0.3862E+01  0.4506E+01
     -8.969  0.1801E+02  0.6343E+01
     -8.867  0.1140E+02  0.7506E+01
     -8.765  0.3755E+01  0.7889E+01
     -8.663  0.1462E+02  0.9381E+01
     -8.561  0.4434E+02  0.1391E+02
     -8.459  0.2217E+02  0.1617E+02
     -8.357  0.9182E+01  0.1710E+02
     -8.255  0.2424E+02  0.1958E+02
     -8.153  0.1261E+02  0.2086E+02
     -8.051  0.2724E+02  0.2364E+02
     -7.949  0.6895E+02  0.3068E+02
     -7.847  0.1784E+02  0.3250E+02
     -7.745  0.2180E+00  0.3252E+02
     -7.643  0.5270E+02  0.3790E+02
     -7.541  0.6529E+02  0.4456E+02
     -7.439  0.2438E+02  0.4705E+02
     -7.337  0.1037E+02  0.4810E+02
     -7.235  0.2815E+02  0.5098E+02
     -7.133  0.4325E+02  0.5539E+02
     -7.031  0.2868E+02  0.5832E+02
     -6.929  0.9843E+02  0.6836E+02
     -6.827  0.2880E+02  0.7130E+02
     -6.725  0.3893E+02  0.7527E+02
     -6.623  0.8737E+02  0.8418E+02
     -6.521  0.3556E+02  0.8781E+02
     -6.418  0.2112E+02  0.8997E+02
     -6.316  0.2621E+01  0.9023E+02
     -6.214  0.2176E+02  0.9245E+02
     -6.112  0.1055E+03  0.1032E+03
     -6.010  0.7188E+02  0.1106E+03
     -5.908  0.7197E+02  0.1179E+03
     -5.806  0.3865E+02  0.1218E+03
     -5.704  0.4379E+02  0.1263E+03
     -5.602  0.1096E+03  0.1375E+03
     -5.500  0.4007E+02  0.1416E+03
     -5.398  0.2161E+02  0.1438E+03
     -5.296  0.7038E+02  0.1510E+03
     -5.194  0.3759E+02  0.1548E+03
     -5.092  0.8375E+02  0.1633E+03
     -4.990  0.8578E+02  0.1721E+03
     -4.888  0.3462E+02  0.1756E+03
     -4.786  0.4688E+02  0.1804E+03
     -4.684  0.1050E+03  0.1911E+03
     -4.582  0.8411E+02  0.1997E+03
     -4.480  0.5837E+02  0.2057E+03
     -4.378  0.3373E+02  0.2091E+03
     -4.276  0.6741E+02  0.2160E+03
     -4.174  0.1114E+03  0.2273E+03
     -4.072  0.1006E+03  0.2376E+03
     -3.970  0.6220E+02  0.2440E+03
     -3.868  0.4651E+02  0.2487E+03
     -3.766  0.7306E+02  0.2561E+03
     -3.664  0.9761E+02  0.2661E+03
     -3.562  0.4931E+02  0.2711E+03
     -3.460  0.5474E+02  0.2767E+03
     -3.358  0.8410E+01  0.2776E+03
     -3.256  0.5036E+02  0.2827E+03
     -3.154  0.9009E+02  0.2919E+03
     -3.052  0.1147E+03  0.3036E+03
     -2.950  0.7192E+02  0.3110E+03
     -2.847  0.1395E+03  0.3252E+03
     -2.745  0.1865E+03  0.3442E+03
     -2.643  0.5081E+02  0.3494E+03
     -2.541  0.1716E+01  0.3496E+03
     -2.439  0.3362E+02  0.3530E+03
     -2.337  0.8657E+02  0.3618E+03
     -2.235  0.1271E+03  0.3748E+03
     -2.133  0.7746E+02  0.3827E+03
     -2.031  0.6198E+02  0.3890E+03
     -1.929  0.6374E+02  0.3955E+03
     -1.827  0.1134E+03  0.4071E+03
     -1.725  0.1393E+03  0.4213E+03
     -1.623  0.3096E+02  0.4245E+03
     -1.521  0.7688E+02  0.4323E+03
     -1.419  0.5863E+02  0.4383E+03
     -1.317  0.1846E+03  0.4571E+03
     -1.215  0.9878E+02  0.4672E+03
     -1.113  0.9571E+02  0.4770E+03
     -1.011  0.7230E+02  0.4844E+03
     -0.909  0.8227E+02  0.4928E+03
     -0.807  0.1331E+03  0.5063E+03
     -0.705  0.7289E+02  0.5138E+03
     -0.603  0.3265E+02  0.5171E+03
     -0.501  0.9176E+02  0.5265E+03
     -0.399  0.2136E+03  0.5483E+03
     -0.297  0.7696E+02  0.5561E+03
     -0.195  0.1370E+03  0.5701E+03
     -0.093  0.4053E+02  0.5742E+03
      0.009  0.3937E+02  0.5782E+03
      0.111  0.1135E+03  0.5898E+03
      0.213  0.9225E+02  0.5992E+03
      0.315  0.7734E+02  0.6071E+03
      0.417  0.8115E+02  0.6154E+03
      0.519  0.1450E+03  0.6302E+03
      0.622  0.6612E+02  0.6369E+03
      0.724  0.4763E+02  0.6418E+03
      0.826  0.5627E+02  0.6475E+03
      0.928  0.1283E+03  0.6606E+03
      1.030  0.2394E+03  0.6851E+03
      1.132  0.1131E+03  0.6966E+03
      1.234  0.7683E+02  0.7044E+03
      1.336  0.6928E+02  0.7115E+03
      1.438  0.9114E+02  0.7208E+03
      1.540  0.1304E+03  0.7341E+03
      1.642  0.1792E+03  0.7524E+03
      1.744  0.1236E+03  0.7650E+03
      1.846  0.5876E+02  0.7710E+03
      1.948  0.1078E+03  0.7820E+03
      2.050  0.1446E+03  0.7968E+03
      2.152  0.8110E+02  0.8050E+03
      2.254  0.7629E+02  0.8128E+03
      2.356  0.5770E+02  0.8187E+03
      2.458  0.1129E+03  0.8302E+03
      2.560  0.9824E+02  0.8402E+03
      2.662  0.1343E+03  0.8539E+03
      2.764  0.6676E+02  0.8608E+03
      2.866  0.1078E+03  0.8717E+03
      2.968  0.3030E+03  0.9027E+03
      3.070  0.1482E+03  0.9178E+03
      3.172  0.4405E+02  0.9223E+03
      3.274  0.1011E+03  0.9326E+03
      3.376  0.1308E+03  0.9459E+03
      3.478  0.1479E+03  0.9610E+03
      3.580  0.7429E+02  0.9686E+03
      3.682  0.1067E+03  0.9795E+03
      3.784  0.8115E+02  0.9878E+03
      3.886  0.9004E+02  0.9970E+03
      3.988  0.1730E+03  0.1015E+04
      4.091  0.8136E+02  0.1023E+04
      4.193  0.1046E+02  0.1024E+04
      4.295  0.2864E+00  0.1024E+04
      4.397  0.8866E-05  0.1024E+04
      4.499  0.9576E-13  0.1024E+04
      4.601  0.0000E+00  0.1024E+04
      4.703  0.0000E+00  0.1024E+04
      4.805  0.0000E+00  0.1024E+04
      4.907  0.0000E+00  0.1024E+04
      5.009  0.0000E+00  0.1024E+04
      5.111  0.0000E+00  0.1024E+04
      5.213  0.0000E+00  0.1024E+04
      5.315  0.0000E+00  0.1024E+04
      5.417  0.0000E+00  0.1024E+04
      5.519  0.0000E+00  0.1024E+04
