<?xml version="1.0" encoding="ISO-8859-1"?>
<modeling>
 <generator>
  <i name="program" type="string">vasp </i>
  <i name="version" type="string">6.2.1  </i>
  <i name="subversion" type="string">16May21 (build May 12 2022 08:28:04) complex                          parallel </i>
  <i name="platform" type="string">LinuxPGI </i>
  <i name="date" type="string">2022 07 20 </i>
  <i name="time" type="string">02:19:37 </i>
 </generator>
 <incar>
  <i type="string" name="SYSTEM">NiAl</i>
  <i type="int" name="ISTART">     0</i>
  <i type="int" name="NELMIN">     6</i>
  <i type="int" name="IBRION">     2</i>
  <i name="EDIFF">      0.00000500</i>
  <i type="int" name="NSW">    40</i>
  <i type="int" name="ISIF">     0</i>
  <i name="ENCUT">    360.00000000</i>
  <i name="POTIM">      0.20000000</i>
  <i type="string" name="LREAL">Auto</i>
  <i type="logical" name="LPLANE"> T  </i>
  <i type="int" name="ISMEAR">     0</i>
  <i name="SIGMA">      0.05000000</i>
  <i type="logical" name="LWAVE"> F  </i>
  <i type="logical" name="LCHARG"> F  </i>
  <i type="int" name="IVDW">    12</i>
 </incar>
 <primitive_cell>
  <structure name="primitive_cell" >
   <crystal>
    <varray name="basis" >
     <v>      10.54150009       0.00000000       0.00000000 </v>
     <v>       5.27075005       9.12920687       0.00000000 </v>
     <v>       0.00000000       0.00000000      28.54150009 </v>
    </varray>
    <i name="volume">   2746.70653362 </i>
    <varray name="rec_basis" >
     <v>       0.09486316      -0.05476927       0.00000000 </v>
     <v>       0.00000000       0.10953854       0.00000000 </v>
     <v>       0.00000000       0.00000000       0.03503670 </v>
    </varray>
   </crystal>
   <varray name="positions" >
    <v>       0.00000000       0.00000000       0.00000000 </v>
    <v>       0.00000000       0.00000000       0.07386788 </v>
    <v>       0.00000000       0.00000000       0.14773576 </v>
    <v>       0.00000000       0.00000000       0.22160364 </v>
    <v>       0.00000000       0.00000000       0.29547151 </v>
    <v>       1.00000000       0.20000000       0.00000000 </v>
    <v>       1.00000000       0.20000000       0.07386788 </v>
    <v>       1.00000000       0.20000000       0.14773576 </v>
    <v>       1.00000000       0.20000000       0.22160364 </v>
    <v>       1.00000000       0.20000000       0.29547151 </v>
    <v>       1.00000000       0.40000001       0.00000000 </v>
    <v>       1.00000000       0.40000001       0.07386788 </v>
    <v>       1.00000000       0.40000001       0.14773576 </v>
    <v>       1.00000000       0.40000001       0.22160364 </v>
    <v>       1.00000000       0.40000001       0.29547151 </v>
    <v>       1.00000000       0.60000002       0.00000000 </v>
    <v>       1.00000000       0.60000002       0.07386788 </v>
    <v>       1.00000000       0.60000002       0.14773576 </v>
    <v>       1.00000000       0.60000002       0.22160364 </v>
    <v>       1.00000000       0.60000002       0.29547151 </v>
    <v>       1.00000000       0.80000001       0.00000000 </v>
    <v>       1.00000000       0.80000001       0.07386788 </v>
    <v>       1.00000000       0.80000001       0.14773576 </v>
    <v>       1.00000000       0.80000001       0.22160364 </v>
    <v>       1.00000000       0.80000001       0.29547151 </v>
    <v>       0.20000000       0.00000000       0.00000000 </v>
    <v>       0.20000000       0.00000000       0.07386788 </v>
    <v>       0.20000000       0.00000000       0.14773576 </v>
    <v>       0.20000000       0.00000000       0.22160364 </v>
    <v>       0.20000000       0.00000000       0.29547151 </v>
    <v>       0.20000000       0.20000000       0.00000000 </v>
    <v>       0.20000000       0.20000000       0.07386788 </v>
    <v>       0.20000000       0.20000000       0.14773576 </v>
    <v>       0.20000000       0.20000000       0.22160364 </v>
    <v>       0.20000000       0.20000000       0.29547151 </v>
    <v>       0.20000000       0.40000001       0.00000000 </v>
    <v>       0.20000000       0.40000001       0.07386788 </v>
    <v>       0.20000000       0.40000001       0.14773576 </v>
    <v>       0.20000000       0.40000001       0.22160364 </v>
    <v>       0.20000000       0.40000001       0.29547151 </v>
    <v>       0.20000000       0.60000002       0.00000000 </v>
    <v>       0.20000000       0.60000002       0.07386788 </v>
    <v>       0.20000000       0.60000002       0.14773576 </v>
    <v>       0.20000000       0.60000002       0.22160364 </v>
    <v>       0.20000000       0.60000002       0.29547151 </v>
    <v>       0.20000000       0.80000001       0.00000000 </v>
    <v>       0.20000000       0.80000001       0.07386788 </v>
    <v>       0.20000000       0.80000001       0.14773576 </v>
    <v>       0.20000000       0.80000001       0.22160364 </v>
    <v>       0.20000000       0.80000001       0.29547151 </v>
    <v>       0.40000001       0.00000000       0.00000000 </v>
    <v>       0.40000001       0.00000000       0.07386788 </v>
    <v>       0.40000001       0.00000000       0.14773576 </v>
    <v>       0.40000001       0.00000000       0.22160364 </v>
    <v>       0.40000001       0.00000000       0.29547151 </v>
    <v>       0.40000001       0.20000000       0.00000000 </v>
    <v>       0.40000001       0.20000000       0.07386788 </v>
    <v>       0.40000001       0.20000000       0.14773576 </v>
    <v>       0.40000001       0.20000000       0.22160364 </v>
    <v>       0.40000001       0.20000000       0.29547151 </v>
    <v>       0.40000001       0.40000001       0.00000000 </v>
    <v>       0.40000001       0.40000001       0.07386788 </v>
    <v>       0.40000001       0.40000001       0.14773576 </v>
    <v>       0.40000001       0.40000001       0.22160364 </v>
    <v>       0.40000001       0.40000001       0.29547151 </v>
    <v>       0.40000001       0.60000002       0.00000000 </v>
    <v>       0.40000001       0.60000002       0.07386788 </v>
    <v>       0.40000001       0.60000002       0.14773576 </v>
    <v>       0.40000001       0.60000002       0.22160364 </v>
    <v>       0.40000001       0.60000002       0.29547151 </v>
    <v>       0.40000001       0.80000001       0.00000000 </v>
    <v>       0.40000001       0.80000001       0.07386788 </v>
    <v>       0.40000001       0.80000001       0.14773576 </v>
    <v>       0.40000001       0.80000001       0.22160364 </v>
    <v>       0.40000001       0.80000001       0.29547151 </v>
    <v>       0.60000002       0.00000000       0.00000000 </v>
    <v>       0.60000002       0.00000000       0.07386788 </v>
    <v>       0.60000002       0.00000000       0.14773576 </v>
    <v>       0.60000002       0.00000000       0.22160364 </v>
    <v>       0.60000002       0.00000000       0.29547151 </v>
    <v>       0.60000002       0.20000000       0.00000000 </v>
    <v>       0.60000002       0.20000000       0.07386788 </v>
    <v>       0.60000002       0.20000000       0.14773576 </v>
    <v>       0.60000002       0.20000000       0.22160364 </v>
    <v>       0.60000002       0.20000000       0.29547151 </v>
    <v>       0.60000002       0.40000001       0.00000000 </v>
    <v>       0.60000002       0.40000001       0.07386788 </v>
    <v>       0.60000002       0.40000001       0.14773576 </v>
    <v>       0.60000002       0.40000001       0.22160364 </v>
    <v>       0.60000002       0.40000001       0.29547151 </v>
    <v>       0.60000002       0.60000002       0.00000000 </v>
    <v>       0.60000002       0.60000002       0.07386788 </v>
    <v>       0.60000002       0.60000002       0.14773576 </v>
    <v>       0.60000002       0.60000002       0.22160364 </v>
    <v>       0.60000002       0.60000002       0.29547151 </v>
    <v>       0.60000002       0.80000001       0.00000000 </v>
    <v>       0.60000002       0.80000001       0.07386788 </v>
    <v>       0.60000002       0.80000001       0.14773576 </v>
    <v>       0.60000002       0.80000001       0.22160364 </v>
    <v>       0.60000002       0.80000001       0.29547151 </v>
    <v>       0.80000001       0.00000000       0.00000000 </v>
    <v>       0.80000001       0.00000000       0.07386788 </v>
    <v>       0.80000001       0.00000000       0.14773576 </v>
    <v>       0.80000001       0.00000000       0.22160364 </v>
    <v>       0.80000001       0.00000000       0.29547151 </v>
    <v>       0.80000001       0.20000000       0.00000000 </v>
    <v>       0.80000001       0.20000000       0.07386788 </v>
    <v>       0.80000001       0.20000000       0.14773576 </v>
    <v>       0.80000001       0.20000000       0.22160364 </v>
    <v>       0.80000001       0.20000000       0.29547151 </v>
    <v>       0.80000001       0.40000001       0.00000000 </v>
    <v>       0.80000001       0.40000001       0.07386788 </v>
    <v>       0.80000001       0.40000001       0.14773576 </v>
    <v>       0.80000001       0.40000001       0.22160364 </v>
    <v>       0.80000001       0.40000001       0.29547151 </v>
    <v>       0.80000001       0.60000002       0.00000000 </v>
    <v>       0.80000001       0.60000002       0.07386788 </v>
    <v>       0.80000001       0.60000002       0.14773576 </v>
    <v>       0.80000001       0.60000002       0.22160364 </v>
    <v>       0.80000001       0.60000002       0.29547151 </v>
    <v>       0.80000001       0.80000001       0.00000000 </v>
    <v>       0.80000001       0.80000001       0.07386788 </v>
    <v>       0.80000001       0.80000001       0.14773576 </v>
    <v>       0.80000001       0.80000001       0.22160364 </v>
    <v>       0.80000001       0.80000001       0.29547151 </v>
    <v>       0.10000000       0.10000000       0.03693394 </v>
    <v>       0.10000000       0.10000000       0.11080182 </v>
    <v>       0.10000000       0.10000000       0.18466969 </v>
    <v>       0.10000000       0.10000000       0.25853757 </v>
    <v>       0.10000000       0.10000000       0.33240544 </v>
    <v>       0.10000000       0.30000001       0.03693394 </v>
    <v>       0.10000000       0.30000001       0.11080182 </v>
    <v>       0.10000000       0.30000001       0.18466969 </v>
    <v>       0.10000000       0.30000001       0.25853757 </v>
    <v>       0.10000000       0.30000001       0.33240544 </v>
    <v>       0.10000000       0.50000000       0.03693394 </v>
    <v>       0.10000000       0.50000000       0.11080182 </v>
    <v>       0.10000000       0.50000000       0.18466969 </v>
    <v>       0.10000000       0.50000000       0.25853757 </v>
    <v>       0.10000000       0.50000000       0.33240544 </v>
    <v>       0.10000000       0.69999999       0.03693394 </v>
    <v>       0.10000000       0.69999999       0.11080182 </v>
    <v>       0.10000000       0.69999999       0.18466969 </v>
    <v>       0.10000000       0.69999999       0.25853757 </v>
    <v>       0.10000000       0.69999999       0.33240544 </v>
    <v>       0.10000000       0.89999998       0.03693394 </v>
    <v>       0.10000000       0.89999998       0.11080182 </v>
    <v>       0.10000000       0.89999998       0.18466969 </v>
    <v>       0.10000000       0.89999998       0.25853757 </v>
    <v>       0.10000000       0.89999998       0.33240544 </v>
    <v>       0.30000001       0.10000000       0.03693394 </v>
    <v>       0.30000001       0.10000000       0.11080182 </v>
    <v>       0.30000001       0.10000000       0.18466969 </v>
    <v>       0.30000001       0.10000000       0.25853757 </v>
    <v>       0.30000001       0.10000000       0.33240544 </v>
    <v>       0.30000001       0.30000001       0.03693394 </v>
    <v>       0.30000001       0.30000001       0.11080182 </v>
    <v>       0.30000001       0.30000001       0.18466969 </v>
    <v>       0.30000001       0.30000001       0.25853757 </v>
    <v>       0.30000001       0.30000001       0.33240544 </v>
    <v>       0.30000001       0.50000000       0.03693394 </v>
    <v>       0.30000001       0.50000000       0.11080182 </v>
    <v>       0.30000001       0.50000000       0.18466969 </v>
    <v>       0.30000001       0.50000000       0.25853757 </v>
    <v>       0.30000001       0.50000000       0.33240544 </v>
    <v>       0.30000001       0.69999999       0.03693394 </v>
    <v>       0.30000001       0.69999999       0.11080182 </v>
    <v>       0.30000001       0.69999999       0.18466969 </v>
    <v>       0.30000001       0.69999999       0.25853757 </v>
    <v>       0.30000001       0.69999999       0.33240544 </v>
    <v>       0.30000001       0.89999998       0.03693394 </v>
    <v>       0.30000001       0.89999998       0.11080182 </v>
    <v>       0.30000001       0.89999998       0.18466969 </v>
    <v>       0.30000001       0.89999998       0.25853757 </v>
    <v>       0.30000001       0.89999998       0.33240544 </v>
    <v>       0.50000000       0.10000000       0.03693394 </v>
    <v>       0.50000000       0.10000000       0.11080182 </v>
    <v>       0.50000000       0.10000000       0.18466969 </v>
    <v>       0.50000000       0.10000000       0.25853757 </v>
    <v>       0.50000000       0.10000000       0.33240544 </v>
    <v>       0.50000000       0.30000001       0.03693394 </v>
    <v>       0.50000000       0.30000001       0.11080182 </v>
    <v>       0.50000000       0.30000001       0.18466969 </v>
    <v>       0.50000000       0.30000001       0.25853757 </v>
    <v>       0.50000000       0.30000001       0.33240544 </v>
    <v>       0.50000000       0.50000000       0.03693394 </v>
    <v>       0.50000000       0.50000000       0.11080182 </v>
    <v>       0.50000000       0.50000000       0.18466969 </v>
    <v>       0.50000000       0.50000000       0.25853757 </v>
    <v>       0.50000000       0.50000000       0.33240544 </v>
    <v>       0.50000000       0.69999999       0.03693394 </v>
    <v>       0.50000000       0.69999999       0.11080182 </v>
    <v>       0.50000000       0.69999999       0.18466969 </v>
    <v>       0.50000000       0.69999999       0.25853757 </v>
    <v>       0.50000000       0.69999999       0.33240544 </v>
    <v>       0.50000000       0.89999998       0.03693394 </v>
    <v>       0.50000000       0.89999998       0.11080182 </v>
    <v>       0.50000000       0.89999998       0.18466969 </v>
    <v>       0.50000000       0.89999998       0.25853757 </v>
    <v>       0.50000000       0.89999998       0.33240544 </v>
    <v>       0.69999999       0.10000000       0.03693394 </v>
    <v>       0.69999999       0.10000000       0.11080182 </v>
    <v>       0.69999999       0.10000000       0.18466969 </v>
    <v>       0.69999999       0.10000000       0.25853757 </v>
    <v>       0.69999999       0.10000000       0.33240544 </v>
    <v>       0.69999999       0.30000001       0.03693394 </v>
    <v>       0.69999999       0.30000001       0.11080182 </v>
    <v>       0.69999999       0.30000001       0.18466969 </v>
    <v>       0.69999999       0.30000001       0.25853757 </v>
    <v>       0.69999999       0.30000001       0.33240544 </v>
    <v>       0.69999999       0.50000000       0.03693394 </v>
    <v>       0.69999999       0.50000000       0.11080182 </v>
    <v>       0.69999999       0.50000000       0.18466969 </v>
    <v>       0.69999999       0.50000000       0.25853757 </v>
    <v>       0.69999999       0.50000000       0.33240544 </v>
    <v>       0.69999999       0.69999999       0.03693394 </v>
    <v>       0.69999999       0.69999999       0.11080182 </v>
    <v>       0.69999999       0.69999999       0.18466969 </v>
    <v>       0.69999999       0.69999999       0.25853757 </v>
    <v>       0.69999999       0.69999999       0.33240544 </v>
    <v>       0.69999999       0.89999998       0.03693394 </v>
    <v>       0.69999999       0.89999998       0.11080182 </v>
    <v>       0.69999999       0.89999998       0.18466969 </v>
    <v>       0.69999999       0.89999998       0.25853757 </v>
    <v>       0.69999999       0.89999998       0.33240544 </v>
    <v>       0.89999998       0.10000000       0.03693394 </v>
    <v>       0.89999998       0.10000000       0.11080182 </v>
    <v>       0.89999998       0.10000000       0.18466969 </v>
    <v>       0.89999998       0.10000000       0.25853757 </v>
    <v>       0.89999998       0.10000000       0.33240544 </v>
    <v>       0.89999998       0.30000001       0.03693394 </v>
    <v>       0.89999998       0.30000001       0.11080182 </v>
    <v>       0.89999998       0.30000001       0.18466969 </v>
    <v>       0.89999998       0.30000001       0.25853757 </v>
    <v>       0.89999998       0.30000001       0.33240544 </v>
    <v>       0.89999998       0.50000000       0.03693394 </v>
    <v>       0.89999998       0.50000000       0.11080182 </v>
    <v>       0.89999998       0.50000000       0.18466969 </v>
    <v>       0.89999998       0.50000000       0.25853757 </v>
    <v>       0.89999998       0.50000000       0.33240544 </v>
    <v>       0.89999998       0.69999999       0.03693394 </v>
    <v>       0.89999998       0.69999999       0.11080182 </v>
    <v>       0.89999998       0.69999999       0.18466969 </v>
    <v>       0.89999998       0.69999999       0.25853757 </v>
    <v>       0.89999998       0.69999999       0.33240544 </v>
    <v>       0.89999998       0.89999998       0.03693394 </v>
    <v>       0.89999998       0.89999998       0.11080182 </v>
    <v>       0.89999998       0.89999998       0.18466969 </v>
    <v>       0.89999998       0.89999998       0.25853757 </v>
    <v>       0.89999998       0.89999998       0.33240544 </v>
    <v>       0.42141986       0.42141986       0.36744214 </v>
   </varray>
  </structure>
  <varray name="primitive_index" >
   <v type="int" >        1 </v>
   <v type="int" >        2 </v>
   <v type="int" >        3 </v>
   <v type="int" >        4 </v>
   <v type="int" >        5 </v>
   <v type="int" >        6 </v>
   <v type="int" >        7 </v>
   <v type="int" >        8 </v>
   <v type="int" >        9 </v>
   <v type="int" >       10 </v>
   <v type="int" >       11 </v>
   <v type="int" >       12 </v>
   <v type="int" >       13 </v>
   <v type="int" >       14 </v>
   <v type="int" >       15 </v>
   <v type="int" >       16 </v>
   <v type="int" >       17 </v>
   <v type="int" >       18 </v>
   <v type="int" >       19 </v>
   <v type="int" >       20 </v>
   <v type="int" >       21 </v>
   <v type="int" >       22 </v>
   <v type="int" >       23 </v>
   <v type="int" >       24 </v>
   <v type="int" >       25 </v>
   <v type="int" >       26 </v>
   <v type="int" >       27 </v>
   <v type="int" >       28 </v>
   <v type="int" >       29 </v>
   <v type="int" >       30 </v>
   <v type="int" >       31 </v>
   <v type="int" >       32 </v>
   <v type="int" >       33 </v>
   <v type="int" >       34 </v>
   <v type="int" >       35 </v>
   <v type="int" >       36 </v>
   <v type="int" >       37 </v>
   <v type="int" >       38 </v>
   <v type="int" >       39 </v>
   <v type="int" >       40 </v>
   <v type="int" >       41 </v>
   <v type="int" >       42 </v>
   <v type="int" >       43 </v>
   <v type="int" >       44 </v>
   <v type="int" >       45 </v>
   <v type="int" >       46 </v>
   <v type="int" >       47 </v>
   <v type="int" >       48 </v>
   <v type="int" >       49 </v>
   <v type="int" >       50 </v>
   <v type="int" >       51 </v>
   <v type="int" >       52 </v>
   <v type="int" >       53 </v>
   <v type="int" >       54 </v>
   <v type="int" >       55 </v>
   <v type="int" >       56 </v>
   <v type="int" >       57 </v>
   <v type="int" >       58 </v>
   <v type="int" >       59 </v>
   <v type="int" >       60 </v>
   <v type="int" >       61 </v>
   <v type="int" >       62 </v>
   <v type="int" >       63 </v>
   <v type="int" >       64 </v>
   <v type="int" >       65 </v>
   <v type="int" >       66 </v>
   <v type="int" >       67 </v>
   <v type="int" >       68 </v>
   <v type="int" >       69 </v>
   <v type="int" >       70 </v>
   <v type="int" >       71 </v>
   <v type="int" >       72 </v>
   <v type="int" >       73 </v>
   <v type="int" >       74 </v>
   <v type="int" >       75 </v>
   <v type="int" >       76 </v>
   <v type="int" >       77 </v>
   <v type="int" >       78 </v>
   <v type="int" >       79 </v>
   <v type="int" >       80 </v>
   <v type="int" >       81 </v>
   <v type="int" >       82 </v>
   <v type="int" >       83 </v>
   <v type="int" >       84 </v>
   <v type="int" >       85 </v>
   <v type="int" >       86 </v>
   <v type="int" >       87 </v>
   <v type="int" >       88 </v>
   <v type="int" >       89 </v>
   <v type="int" >       90 </v>
   <v type="int" >       91 </v>
   <v type="int" >       92 </v>
   <v type="int" >       93 </v>
   <v type="int" >       94 </v>
   <v type="int" >       95 </v>
   <v type="int" >       96 </v>
   <v type="int" >       97 </v>
   <v type="int" >       98 </v>
   <v type="int" >       99 </v>
   <v type="int" >      100 </v>
   <v type="int" >      101 </v>
   <v type="int" >      102 </v>
   <v type="int" >      103 </v>
   <v type="int" >      104 </v>
   <v type="int" >      105 </v>
   <v type="int" >      106 </v>
   <v type="int" >      107 </v>
   <v type="int" >      108 </v>
   <v type="int" >      109 </v>
   <v type="int" >      110 </v>
   <v type="int" >      111 </v>
   <v type="int" >      112 </v>
   <v type="int" >      113 </v>
   <v type="int" >      114 </v>
   <v type="int" >      115 </v>
   <v type="int" >      116 </v>
   <v type="int" >      117 </v>
   <v type="int" >      118 </v>
   <v type="int" >      119 </v>
   <v type="int" >      120 </v>
   <v type="int" >      121 </v>
   <v type="int" >      122 </v>
   <v type="int" >      123 </v>
   <v type="int" >      124 </v>
   <v type="int" >      125 </v>
   <v type="int" >      126 </v>
   <v type="int" >      127 </v>
   <v type="int" >      128 </v>
   <v type="int" >      129 </v>
   <v type="int" >      130 </v>
   <v type="int" >      131 </v>
   <v type="int" >      132 </v>
   <v type="int" >      133 </v>
   <v type="int" >      134 </v>
   <v type="int" >      135 </v>
   <v type="int" >      136 </v>
   <v type="int" >      137 </v>
   <v type="int" >      138 </v>
   <v type="int" >      139 </v>
   <v type="int" >      140 </v>
   <v type="int" >      141 </v>
   <v type="int" >      142 </v>
   <v type="int" >      143 </v>
   <v type="int" >      144 </v>
   <v type="int" >      145 </v>
   <v type="int" >      146 </v>
   <v type="int" >      147 </v>
   <v type="int" >      148 </v>
   <v type="int" >      149 </v>
   <v type="int" >      150 </v>
   <v type="int" >      151 </v>
   <v type="int" >      152 </v>
   <v type="int" >      153 </v>
   <v type="int" >      154 </v>
   <v type="int" >      155 </v>
   <v type="int" >      156 </v>
   <v type="int" >      157 </v>
   <v type="int" >      158 </v>
   <v type="int" >      159 </v>
   <v type="int" >      160 </v>
   <v type="int" >      161 </v>
   <v type="int" >      162 </v>
   <v type="int" >      163 </v>
   <v type="int" >      164 </v>
   <v type="int" >      165 </v>
   <v type="int" >      166 </v>
   <v type="int" >      167 </v>
   <v type="int" >      168 </v>
   <v type="int" >      169 </v>
   <v type="int" >      170 </v>
   <v type="int" >      171 </v>
   <v type="int" >      172 </v>
   <v type="int" >      173 </v>
   <v type="int" >      174 </v>
   <v type="int" >      175 </v>
   <v type="int" >      176 </v>
   <v type="int" >      177 </v>
   <v type="int" >      178 </v>
   <v type="int" >      179 </v>
   <v type="int" >      180 </v>
   <v type="int" >      181 </v>
   <v type="int" >      182 </v>
   <v type="int" >      183 </v>
   <v type="int" >      184 </v>
   <v type="int" >      185 </v>
   <v type="int" >      186 </v>
   <v type="int" >      187 </v>
   <v type="int" >      188 </v>
   <v type="int" >      189 </v>
   <v type="int" >      190 </v>
   <v type="int" >      191 </v>
   <v type="int" >      192 </v>
   <v type="int" >      193 </v>
   <v type="int" >      194 </v>
   <v type="int" >      195 </v>
   <v type="int" >      196 </v>
   <v type="int" >      197 </v>
   <v type="int" >      198 </v>
   <v type="int" >      199 </v>
   <v type="int" >      200 </v>
   <v type="int" >      201 </v>
   <v type="int" >      202 </v>
   <v type="int" >      203 </v>
   <v type="int" >      204 </v>
   <v type="int" >      205 </v>
   <v type="int" >      206 </v>
   <v type="int" >      207 </v>
   <v type="int" >      208 </v>
   <v type="int" >      209 </v>
   <v type="int" >      210 </v>
   <v type="int" >      211 </v>
   <v type="int" >      212 </v>
   <v type="int" >      213 </v>
   <v type="int" >      214 </v>
   <v type="int" >      215 </v>
   <v type="int" >      216 </v>
   <v type="int" >      217 </v>
   <v type="int" >      218 </v>
   <v type="int" >      219 </v>
   <v type="int" >      220 </v>
   <v type="int" >      221 </v>
   <v type="int" >      222 </v>
   <v type="int" >      223 </v>
   <v type="int" >      224 </v>
   <v type="int" >      225 </v>
   <v type="int" >      226 </v>
   <v type="int" >      227 </v>
   <v type="int" >      228 </v>
   <v type="int" >      229 </v>
   <v type="int" >      230 </v>
   <v type="int" >      231 </v>
   <v type="int" >      232 </v>
   <v type="int" >      233 </v>
   <v type="int" >      234 </v>
   <v type="int" >      235 </v>
   <v type="int" >      236 </v>
   <v type="int" >      237 </v>
   <v type="int" >      238 </v>
   <v type="int" >      239 </v>
   <v type="int" >      240 </v>
   <v type="int" >      241 </v>
   <v type="int" >      242 </v>
   <v type="int" >      243 </v>
   <v type="int" >      244 </v>
   <v type="int" >      245 </v>
   <v type="int" >      246 </v>
   <v type="int" >      247 </v>
   <v type="int" >      248 </v>
   <v type="int" >      249 </v>
   <v type="int" >      250 </v>
   <v type="int" >      251 </v>
  </varray>
 </primitive_cell>
 <kpoints>
  <generation param="Gamma">
   <v type="int" name="divisions">       2        2        1 </v>
   <v name="usershift">      0.00000000       0.00000000       0.00000000 </v>
   <v name="genvec1">      0.50000000      -0.00000000       0.00000000 </v>
   <v name="genvec2">      0.00000000       0.50000000       0.00000000 </v>
   <v name="genvec3">      0.00000000       0.00000000       1.00000000 </v>
   <v name="shift">      0.00000000       0.00000000       0.00000000 </v>
  </generation>
  <varray name="kpointlist" >
   <v>       0.00000000       0.00000000       0.00000000 </v>
   <v>       0.50000000       0.00000000       0.00000000 </v>
   <v>       0.50000000       0.50000000       0.00000000 </v>
  </varray>
  <varray name="weights" >
   <v>       0.25000000 </v>
   <v>       0.50000000 </v>
   <v>       0.25000000 </v>
  </varray>
 </kpoints>
 <parameters>
  <separator name="general" >
   <i type="string" name="SYSTEM">NiAl</i>
   <i type="logical" name="LCOMPAT"> F  </i>
  </separator>
  <separator name="electronic" >
   <i type="string" name="PREC">normal</i>
   <i name="ENMAX">    360.00000000</i>
   <i name="ENAUG">   1139.60900000</i>
   <i name="EDIFF">      0.00000500</i>
   <i type="int" name="IALGO">    38</i>
   <i type="int" name="IWAVPR">    11</i>
   <i type="int" name="NBANDS">  1203</i>
   <i type="int" name="NBANDSLOW">    -1</i>
   <i type="int" name="NBANDSHIGH">    -1</i>
   <i name="NELECT">   2006.00000000</i>
   <i type="int" name="TURBO">     0</i>
   <i type="int" name="IRESTART">     0</i>
   <i type="int" name="NREBOOT">     0</i>
   <i type="int" name="NMIN">     0</i>
   <i name="EREF">      0.00000000</i>
   <separator name="electronic smearing" >
    <i type="int" name="ISMEAR">     0</i>
    <i name="SIGMA">      0.05000000</i>
    <i name="KSPACING">      0.50000000</i>
    <i type="logical" name="KGAMMA"> T  </i>
    <i type="logical" name="KBLOWUP"> T  </i>
   </separator>
   <separator name="electronic projectors" >
    <i type="logical" name="LREAL"> T  </i>
    <v name="ROPT">     -0.00050000     -0.00050000</v>
    <i type="int" name="LMAXPAW">  -100</i>
    <i type="int" name="LMAXMIX">     2</i>
    <i type="logical" name="NLSPLINE"> F  </i>
   </separator>
   <separator name="electronic startup" >
    <i type="int" name="ISTART">     0</i>
    <i type="int" name="ICHARG">     2</i>
    <i type="int" name="INIWAV">     1</i>
   </separator>
   <separator name="electronic spin" >
    <i type="int" name="ISPIN">     1</i>
    <i type="logical" name="LNONCOLLINEAR"> F  </i>
    <v name="MAGMOM">      1.00000000      1.00000000      1.00000000      1.00000000      1.00000000      1.00000000      1.00000000      1.00000000      1.00000000      1.00000000      1.00000000      1.00000000      1.00000000      1.00000000      1.00000000      1.00000000      1.00000000      1.00000000      1.00000000      1.00000000
      1.00000000      1.00000000      1.00000000      1.00000000      1.00000000      1.00000000      1.00000000      1.00000000      1.00000000      1.00000000      1.00000000      1.00000000      1.00000000      1.00000000      1.00000000      1.00000000      1.00000000      1.00000000      1.00000000      1.00000000
      1.00000000      1.00000000      1.00000000      1.00000000      1.00000000      1.00000000      1.00000000      1.00000000      1.00000000      1.00000000      1.00000000      1.00000000      1.00000000      1.00000000      1.00000000      1.00000000      1.00000000      1.00000000      1.00000000      1.00000000
      1.00000000      1.00000000      1.00000000      1.00000000      1.00000000      1.00000000      1.00000000      1.00000000      1.00000000      1.00000000      1.00000000      1.00000000      1.00000000      1.00000000      1.00000000      1.00000000      1.00000000      1.00000000      1.00000000      1.00000000
      1.00000000      1.00000000      1.00000000      1.00000000      1.00000000      1.00000000      1.00000000      1.00000000      1.00000000      1.00000000      1.00000000      1.00000000      1.00000000      1.00000000      1.00000000      1.00000000      1.00000000      1.00000000      1.00000000      1.00000000
      1.00000000      1.00000000      1.00000000      1.00000000      1.00000000      1.00000000      1.00000000      1.00000000      1.00000000      1.00000000      1.00000000      1.00000000      1.00000000      1.00000000      1.00000000      1.00000000      1.00000000      1.00000000      1.00000000      1.00000000
      1.00000000      1.00000000      1.00000000      1.00000000      1.00000000      1.00000000      1.00000000      1.00000000      1.00000000      1.00000000      1.00000000      1.00000000      1.00000000      1.00000000      1.00000000      1.00000000      1.00000000      1.00000000      1.00000000      1.00000000
      1.00000000      1.00000000      1.00000000      1.00000000      1.00000000      1.00000000      1.00000000      1.00000000      1.00000000      1.00000000      1.00000000      1.00000000      1.00000000      1.00000000      1.00000000      1.00000000      1.00000000      1.00000000      1.00000000      1.00000000
      1.00000000      1.00000000      1.00000000      1.00000000      1.00000000      1.00000000      1.00000000      1.00000000      1.00000000      1.00000000      1.00000000      1.00000000      1.00000000      1.00000000      1.00000000      1.00000000      1.00000000      1.00000000      1.00000000      1.00000000
      1.00000000      1.00000000      1.00000000      1.00000000      1.00000000      1.00000000      1.00000000      1.00000000      1.00000000      1.00000000      1.00000000      1.00000000      1.00000000      1.00000000      1.00000000      1.00000000      1.00000000      1.00000000      1.00000000      1.00000000
      1.00000000      1.00000000      1.00000000      1.00000000      1.00000000      1.00000000      1.00000000      1.00000000      1.00000000      1.00000000      1.00000000      1.00000000      1.00000000      1.00000000      1.00000000      1.00000000      1.00000000      1.00000000      1.00000000      1.00000000
      1.00000000      1.00000000      1.00000000      1.00000000      1.00000000      1.00000000      1.00000000      1.00000000      1.00000000      1.00000000      1.00000000      1.00000000      1.00000000      1.00000000      1.00000000      1.00000000      1.00000000      1.00000000      1.00000000      1.00000000
      1.00000000      1.00000000      1.00000000      1.00000000      1.00000000      1.00000000      1.00000000      1.00000000      1.00000000      1.00000000      1.00000000</v>
    <i name="NUPDOWN">     -1.00000000</i>
    <i type="logical" name="LSORBIT"> F  </i>
    <v name="SAXIS">      0.00000000      0.00000000      1.00000000</v>
    <i type="logical" name="LSPIRAL"> F  </i>
    <v name="QSPIRAL">      0.00000000      0.00000000      0.00000000</v>
    <i type="logical" name="LZEROZ"> F  </i>
   </separator>
   <separator name="electronic exchange-correlation" >
    <i type="logical" name="LASPH"> F  </i>
    <i type="logical" name="LMETAGGA"> F  </i>
   </separator>
   <separator name="electronic convergence" >
    <i type="int" name="NELM">    60</i>
    <i type="int" name="NELMDL">    -5</i>
    <i type="int" name="NELMIN">     6</i>
    <i name="ENINI">    360.00000000</i>
    <separator name="electronic convergence detail" >
     <i type="logical" name="LDIAG"> T  </i>
     <i type="logical" name="LSUBROT"> F  </i>
     <i name="WEIMIN">      0.00100000</i>
     <i name="EBREAK">      0.00000000</i>
     <i name="DEPER">      0.30000000</i>
     <i type="int" name="NRMM">     4</i>
     <i name="TIME">      0.40000000</i>
    </separator>
   </separator>
   <separator name="electronic mixer" >
    <i name="AMIX">      0.40000000</i>
    <i name="BMIX">      1.00000000</i>
    <i name="AMIN">      0.10000000</i>
    <i name="AMIX_MAG">      1.60000000</i>
    <i name="BMIX_MAG">      1.00000000</i>
    <separator name="electronic mixer details" >
     <i type="int" name="IMIX">     4</i>
     <i type="logical" name="MIXFIRST"> F  </i>
     <i type="int" name="MAXMIX">   -45</i>
     <i name="WC">    100.00000000</i>
     <i type="int" name="INIMIX">     1</i>
     <i type="int" name="MIXPRE">     1</i>
     <i type="int" name="MREMOVE">     5</i>
    </separator>
   </separator>
   <separator name="electronic dipolcorrection" >
    <i type="logical" name="LDIPOL"> F  </i>
    <i type="logical" name="LMONO"> F  </i>
    <i type="int" name="IDIPOL">     0</i>
    <i name="EPSILON">      1.00000000</i>
    <v name="DIPOL">   -100.00000000   -100.00000000   -100.00000000</v>
    <i name="EFIELD">      0.00000000</i>
   </separator>
  </separator>
  <separator name="grids" >
   <i type="int" name="NGX">    50</i>
   <i type="int" name="NGY">    50</i>
   <i type="int" name="NGZ">   140</i>
   <i type="int" name="NGXF">   100</i>
   <i type="int" name="NGYF">   100</i>
   <i type="int" name="NGZF">   280</i>
   <i type="logical" name="ADDGRID"> F  </i>
  </separator>
  <separator name="ionic" >
   <i type="int" name="NSW">    40</i>
   <i type="int" name="IBRION">     2</i>
   <i type="int" name="MDALGO">     0</i>
   <i type="int" name="ISIF">     0</i>
   <i name="PSTRESS">      0.00000000</i>
   <i name="EDIFFG">      0.00005000</i>
   <i type="int" name="NFREE">     1</i>
   <i name="POTIM">      0.20000000</i>
   <i name="SMASS">     -3.00000000</i>
   <i name="SCALEE">      1.00000000</i>
  </separator>
  <separator name="ionic md" >
   <i name="TEBEG">      0.00010000</i>
   <i name="TEEND">      0.00010000</i>
   <i type="int" name="NBLOCK">     1</i>
   <i type="int" name="KBLOCK">    40</i>
   <i type="int" name="NPACO">   256</i>
   <i name="APACO">     16.00000000</i>
  </separator>
  <separator name="symmetry" >
   <i type="int" name="ISYM">     2</i>
   <i name="SYMPREC">      0.00001000</i>
  </separator>
  <separator name="dos" >
   <i type="int" name="LORBIT">     0</i>
   <v name="RWIGS">     -1.00000000     -1.00000000</v>
   <i type="int" name="NEDOS">   301</i>
   <i name="EMIN">     10.00000000</i>
   <i name="EMAX">    -10.00000000</i>
   <i name="EFERMI">      0.00000000</i>
  </separator>
  <separator name="writing" >
   <i type="int" name="NWRITE">     2</i>
   <i type="logical" name="LWAVE"> F  </i>
   <i type="logical" name="LDOWNSAMPLE"> F  </i>
   <i type="logical" name="LCHARG"> F  </i>
   <i type="logical" name="LPARD"> F  </i>
   <i type="logical" name="LVTOT"> F  </i>
   <i type="logical" name="LVHAR"> F  </i>
   <i type="logical" name="LELF"> F  </i>
   <i type="logical" name="LOPTICS"> F  </i>
   <v name="STM">      0.00000000      0.00000000      0.00000000      0.00000000      0.00000000      0.00000000      0.00000000</v>
  </separator>
  <separator name="performance" >
   <i type="int" name="NPAR">     1</i>
   <i type="int" name="NSIM">     4</i>
   <i type="int" name="NBLK">    -1</i>
   <i type="logical" name="LPLANE"> T  </i>
   <i type="logical" name="LSCALAPACK"> T  </i>
   <i type="logical" name="LSCAAWARE"> F  </i>
   <i type="logical" name="LSCALU"> F  </i>
   <i type="logical" name="LASYNC"> F  </i>
   <i type="logical" name="LORBITALREAL"> F  </i>
  </separator>
  <separator name="miscellaneous" >
   <i type="int" name="IDIOT">     3</i>
   <i type="int" name="PHON_NSTRUCT">    -1</i>
   <i type="logical" name="LMUSIC"> F  </i>
   <v name="POMASS">     58.69000000     16.00000000</v>
   <v name="DARWINR">      0.00000000      0.00000000</v>
   <v name="DARWINV">      1.00000000      1.00000000</v>
   <i type="logical" name="LCORR"> T  </i>
  </separator>
  <i type="logical" name="GGA_COMPAT"> T  </i>
  <i type="logical" name="LBERRY"> F  </i>
  <i type="int" name="ICORELEVEL">     0</i>
  <i type="logical" name="LDAU"> F  </i>
  <i type="int" name="I_CONSTRAINED_M">     0</i>
  <separator name="electronic exchange-correlation" >
   <i type="string" name="GGA">--</i>
   <i type="int" name="VOSKOWN">     0</i>
   <i type="logical" name="LHFCALC"> F  </i>
   <i type="string" name="PRECFOCK"></i>
   <i type="logical" name="LSYMGRAD"> F  </i>
   <i type="logical" name="LHFONE"> F  </i>
   <i type="logical" name="LRHFCALC"> F  </i>
   <i type="logical" name="LTHOMAS"> F  </i>
   <i type="logical" name="LMODELHF"> F  </i>
   <i type="logical" name="LFOCKACE"> F  </i>
   <i name="ENCUT4O">     -1.00000000</i>
   <i type="int" name="EXXOEP">     0</i>
   <i type="int" name="FOURORBIT">     0</i>
   <i name="AEXX">      0.00000000</i>
   <i name="HFALPHA">      0.00000000</i>
   <i name="MCALPHA">      0.00000000</i>
   <i name="ALDAX">      1.00000000</i>
   <i name="AGGAX">      1.00000000</i>
   <i name="ALDAC">      1.00000000</i>
   <i name="AGGAC">      1.00000000</i>
   <i type="int" name="NKREDX">     1</i>
   <i type="int" name="NKREDY">     1</i>
   <i type="int" name="NKREDZ">     1</i>
   <i type="logical" name="SHIFTRED"> F  </i>
   <i type="logical" name="ODDONLY"> F  </i>
   <i type="logical" name="EVENONLY"> F  </i>
   <i type="int" name="LMAXFOCK">     0</i>
   <i type="int" name="NMAXFOCKAE">     0</i>
   <i type="logical" name="LFOCKAEDFT"> F  </i>
   <i name="HFSCREEN">      0.00000000</i>
   <i name="HFSCREENC">      0.00000000</i>
   <i type="int" name="NBANDSGWLOW">     0</i>
  </separator>
  <separator name="vdW DFT" >
   <i type="logical" name="LUSE_VDW"> F  </i>
   <i name="Zab_VDW">     -0.84910000</i>
   <i name="PARAM1">      0.12340000</i>
   <i name="PARAM2">      1.00000000</i>
   <i name="PARAM3">      0.00000000</i>
  </separator>
  <separator name="model GW" >
   <i type="int" name="MODEL_GW">     0</i>
   <i name="MODEL_EPS0">      6.56583235</i>
   <i name="MODEL_ALPHA">      1.00000000</i>
  </separator>
  <separator name="linear response parameters" >
   <i type="logical" name="LEPSILON"> F  </i>
   <i type="logical" name="LRPA"> F  </i>
   <i type="logical" name="LNABLA"> F  </i>
   <i type="logical" name="LVEL"> F  </i>
   <i type="int" name="KINTER">     0</i>
   <i name="CSHIFT">      0.10000000</i>
   <i name="OMEGAMAX">     -1.00000000</i>
   <i name="DEG_THRESHOLD">      0.00200000</i>
   <i name="RTIME">     -0.10000000</i>
   <i name="WPLASMAI">      0.00000000</i>
   <v name="DFIELD">      0.00000000      0.00000000      0.00000000</v>
   <v name="WPLASMA">      0.00000000      0.00000000      0.00000000      0.00000000      0.00000000      0.00000000      0.00000000      0.00000000      0.00000000</v>
  </separator>
  <separator name="orbital magnetization" >
   <i type="logical" name="NUCIND"> F  </i>
   <v name="MAGPOS">      0.00000000      0.00000000      0.00000000</v>
   <i type="logical" name="LNICSALL"> T  </i>
   <i type="logical" name="ORBITALMAG"> F  </i>
   <i type="logical" name="LMAGBLOCH"> F  </i>
   <i type="logical" name="LCHIMAG"> F  </i>
   <i type="logical" name="LGAUGE"> T  </i>
   <i type="int" name="MAGATOM">     0</i>
   <v name="MAGDIPOL">      0.00000000      0.00000000      0.00000000</v>
   <v name="AVECCONST">      0.00000000      0.00000000      0.00000000</v>
  </separator>
  <separator name="response functions" >
   <i type="logical" name="LFINITE_TEMPERATURE"> F  </i>
   <i type="logical" name="LADDER"> F  </i>
   <i type="logical" name="LRPAFORCE"> F  </i>
   <i type="logical" name="LFXC"> F  </i>
   <i type="logical" name="LHARTREE"> T  </i>
   <i type="int" name="IBSE">     0</i>
   <v type="int" name="KPOINT">    -1     0     0     0</v>
   <i type="logical" name="LTCTC"> F  </i>
   <i type="logical" name="LTCTE"> F  </i>
   <i type="logical" name="LTETE"> F  </i>
   <i type="logical" name="LTRIPLET"> F  </i>
   <i type="logical" name="LFXCEPS"> F  </i>
   <i type="logical" name="LFXHEG"> F  </i>
   <i type="int" name="NATURALO">     2</i>
   <i type="logical" name="LHOLEGF"> F  </i>
   <i type="logical" name="L2ORDER"> F  </i>
   <i type="logical" name="LDMP1"> F  </i>
   <i type="logical" name="LMP2LT"> F  </i>
   <i type="logical" name="LSMP2LT"> F  </i>
   <i type="logical" name="LGWLF"> F  </i>
   <i name="ENCUTGW">     -2.00000000</i>
   <i name="ENCUTGWSOFT">     -2.00000000</i>
   <i name="ENCUTLF">     -1.00000000</i>
   <i type="logical" name="LESF_SPLINES"> F  </i>
   <i type="int" name="LMAXMP2">    -1</i>
   <i name="SCISSOR">      0.00000000</i>
   <i type="int" name="NOMEGA">     0</i>
   <i type="int" name="NOMEGAR">     0</i>
   <i type="int" name="NBANDSGW">    -1</i>
   <i type="int" name="NBANDSO">    -1</i>
   <i type="int" name="NBANDSV">    -1</i>
   <i type="int" name="NELM">     1</i>
   <i type="int" name="NELMHF">     1</i>
   <i type="int" name="DIM">     3</i>
   <i type="int" name="IESPILON">     4</i>
   <i type="int" name="ANTIRES">     0</i>
   <i name="OMEGAMAX">    -30.00000000</i>
   <i name="OMEGAMIN">    -30.00000000</i>
   <i name="OMEGATL">   -200.00000000</i>
   <i type="int" name="OMEGAGRID">     0</i>
   <i name="CSHIFT">     -0.10000000</i>
   <i type="logical" name="LSELFENERGY"> F  </i>
   <i type="logical" name="LSPECTRAL"> F  </i>
   <i type="logical" name="LSPECTRALGW"> F  </i>
   <i type="logical" name="LSINGLES"> F  </i>
   <i type="logical" name="LFERMIGW"> F  </i>
   <i type="logical" name="ODDONLYGW"> F  </i>
   <i type="logical" name="EVENONLYGW"> F  </i>
   <i type="int" name="NKREDLFX">     1</i>
   <i type="int" name="NKREDLFY">     1</i>
   <i type="int" name="NKREDLFZ">     1</i>
   <i type="int" name="MAXMEM">  2800</i>
   <i type="int" name="TELESCOPE">     0</i>
   <i type="int" name="NTAUPAR">    -1</i>
   <i type="int" name="NOMEGAPAR">    -1</i>
   <i name="DAMP_NEWTON">      0.80000001</i>
   <i name="LAMBDA">      1.00000000</i>
  </separator>
  <separator name="External order field" >
   <i name="OFIELD_KAPPA">      0.00000000</i>
   <v name="OFIELD_K">      0.00000000      0.00000000      0.00000000</v>
   <i name="OFIELD_Q6_NEAR">      0.00000000</i>
   <i name="OFIELD_Q6_FAR">      0.00000000</i>
   <i name="OFIELD_A">      0.00000000</i>
  </separator>
 </parameters>
 <atominfo>
  <atoms>     251 </atoms>
  <types>       2 </types>
  <array name="atoms" >
   <dimension dim="1">ion</dimension>
   <field type="string">element</field>
   <field type="int">atomtype</field>
   <set>
    <rc><c>Ni</c><c>   1</c></rc>
    <rc><c>Ni</c><c>   1</c></rc>
    <rc><c>Ni</c><c>   1</c></rc>
    <rc><c>Ni</c><c>   1</c></rc>
    <rc><c>Ni</c><c>   1</c></rc>
    <rc><c>Ni</c><c>   1</c></rc>
    <rc><c>Ni</c><c>   1</c></rc>
    <rc><c>Ni</c><c>   1</c></rc>
    <rc><c>Ni</c><c>   1</c></rc>
    <rc><c>Ni</c><c>   1</c></rc>
    <rc><c>Ni</c><c>   1</c></rc>
    <rc><c>Ni</c><c>   1</c></rc>
    <rc><c>Ni</c><c>   1</c></rc>
    <rc><c>Ni</c><c>   1</c></rc>
    <rc><c>Ni</c><c>   1</c></rc>
    <rc><c>Ni</c><c>   1</c></rc>
    <rc><c>Ni</c><c>   1</c></rc>
    <rc><c>Ni</c><c>   1</c></rc>
    <rc><c>Ni</c><c>   1</c></rc>
    <rc><c>Ni</c><c>   1</c></rc>
    <rc><c>Ni</c><c>   1</c></rc>
    <rc><c>Ni</c><c>   1</c></rc>
    <rc><c>Ni</c><c>   1</c></rc>
    <rc><c>Ni</c><c>   1</c></rc>
    <rc><c>Ni</c><c>   1</c></rc>
    <rc><c>Ni</c><c>   1</c></rc>
    <rc><c>Ni</c><c>   1</c></rc>
    <rc><c>Ni</c><c>   1</c></rc>
    <rc><c>Ni</c><c>   1</c></rc>
    <rc><c>Ni</c><c>   1</c></rc>
    <rc><c>Ni</c><c>   1</c></rc>
    <rc><c>Ni</c><c>   1</c></rc>
    <rc><c>Ni</c><c>   1</c></rc>
    <rc><c>Ni</c><c>   1</c></rc>
    <rc><c>Ni</c><c>   1</c></rc>
    <rc><c>Ni</c><c>   1</c></rc>
    <rc><c>Ni</c><c>   1</c></rc>
    <rc><c>Ni</c><c>   1</c></rc>
    <rc><c>Ni</c><c>   1</c></rc>
    <rc><c>Ni</c><c>   1</c></rc>
    <rc><c>Ni</c><c>   1</c></rc>
    <rc><c>Ni</c><c>   1</c></rc>
    <rc><c>Ni</c><c>   1</c></rc>
    <rc><c>Ni</c><c>   1</c></rc>
    <rc><c>Ni</c><c>   1</c></rc>
    <rc><c>Ni</c><c>   1</c></rc>
    <rc><c>Ni</c><c>   1</c></rc>
    <rc><c>Ni</c><c>   1</c></rc>
    <rc><c>Ni</c><c>   1</c></rc>
    <rc><c>Ni</c><c>   1</c></rc>
    <rc><c>Ni</c><c>   1</c></rc>
    <rc><c>Ni</c><c>   1</c></rc>
    <rc><c>Ni</c><c>   1</c></rc>
    <rc><c>Ni</c><c>   1</c></rc>
    <rc><c>Ni</c><c>   1</c></rc>
    <rc><c>Ni</c><c>   1</c></rc>
    <rc><c>Ni</c><c>   1</c></rc>
    <rc><c>Ni</c><c>   1</c></rc>
    <rc><c>Ni</c><c>   1</c></rc>
    <rc><c>Ni</c><c>   1</c></rc>
    <rc><c>Ni</c><c>   1</c></rc>
    <rc><c>Ni</c><c>   1</c></rc>
    <rc><c>Ni</c><c>   1</c></rc>
    <rc><c>Ni</c><c>   1</c></rc>
    <rc><c>Ni</c><c>   1</c></rc>
    <rc><c>Ni</c><c>   1</c></rc>
    <rc><c>Ni</c><c>   1</c></rc>
    <rc><c>Ni</c><c>   1</c></rc>
    <rc><c>Ni</c><c>   1</c></rc>
    <rc><c>Ni</c><c>   1</c></rc>
    <rc><c>Ni</c><c>   1</c></rc>
    <rc><c>Ni</c><c>   1</c></rc>
    <rc><c>Ni</c><c>   1</c></rc>
    <rc><c>Ni</c><c>   1</c></rc>
    <rc><c>Ni</c><c>   1</c></rc>
    <rc><c>Ni</c><c>   1</c></rc>
    <rc><c>Ni</c><c>   1</c></rc>
    <rc><c>Ni</c><c>   1</c></rc>
    <rc><c>Ni</c><c>   1</c></rc>
    <rc><c>Ni</c><c>   1</c></rc>
    <rc><c>Ni</c><c>   1</c></rc>
    <rc><c>Ni</c><c>   1</c></rc>
    <rc><c>Ni</c><c>   1</c></rc>
    <rc><c>Ni</c><c>   1</c></rc>
    <rc><c>Ni</c><c>   1</c></rc>
    <rc><c>Ni</c><c>   1</c></rc>
    <rc><c>Ni</c><c>   1</c></rc>
    <rc><c>Ni</c><c>   1</c></rc>
    <rc><c>Ni</c><c>   1</c></rc>
    <rc><c>Ni</c><c>   1</c></rc>
    <rc><c>Ni</c><c>   1</c></rc>
    <rc><c>Ni</c><c>   1</c></rc>
    <rc><c>Ni</c><c>   1</c></rc>
    <rc><c>Ni</c><c>   1</c></rc>
    <rc><c>Ni</c><c>   1</c></rc>
    <rc><c>Ni</c><c>   1</c></rc>
    <rc><c>Ni</c><c>   1</c></rc>
    <rc><c>Ni</c><c>   1</c></rc>
    <rc><c>Ni</c><c>   1</c></rc>
    <rc><c>Ni</c><c>   1</c></rc>
    <rc><c>Ni</c><c>   1</c></rc>
    <rc><c>Ni</c><c>   1</c></rc>
    <rc><c>Ni</c><c>   1</c></rc>
    <rc><c>Ni</c><c>   1</c></rc>
    <rc><c>Ni</c><c>   1</c></rc>
    <rc><c>Ni</c><c>   1</c></rc>
    <rc><c>Ni</c><c>   1</c></rc>
    <rc><c>Ni</c><c>   1</c></rc>
    <rc><c>Ni</c><c>   1</c></rc>
    <rc><c>Ni</c><c>   1</c></rc>
    <rc><c>Ni</c><c>   1</c></rc>
    <rc><c>Ni</c><c>   1</c></rc>
    <rc><c>Ni</c><c>   1</c></rc>
    <rc><c>Ni</c><c>   1</c></rc>
    <rc><c>Ni</c><c>   1</c></rc>
    <rc><c>Ni</c><c>   1</c></rc>
    <rc><c>Ni</c><c>   1</c></rc>
    <rc><c>Ni</c><c>   1</c></rc>
    <rc><c>Ni</c><c>   1</c></rc>
    <rc><c>Ni</c><c>   1</c></rc>
    <rc><c>Ni</c><c>   1</c></rc>
    <rc><c>Ni</c><c>   1</c></rc>
    <rc><c>Ni</c><c>   1</c></rc>
    <rc><c>Ni</c><c>   1</c></rc>
    <rc><c>Ni</c><c>   1</c></rc>
    <rc><c>O </c><c>   2</c></rc>
    <rc><c>O </c><c>   2</c></rc>
    <rc><c>O </c><c>   2</c></rc>
    <rc><c>O </c><c>   2</c></rc>
    <rc><c>O </c><c>   2</c></rc>
    <rc><c>O </c><c>   2</c></rc>
    <rc><c>O </c><c>   2</c></rc>
    <rc><c>O </c><c>   2</c></rc>
    <rc><c>O </c><c>   2</c></rc>
    <rc><c>O </c><c>   2</c></rc>
    <rc><c>O </c><c>   2</c></rc>
    <rc><c>O </c><c>   2</c></rc>
    <rc><c>O </c><c>   2</c></rc>
    <rc><c>O </c><c>   2</c></rc>
    <rc><c>O </c><c>   2</c></rc>
    <rc><c>O </c><c>   2</c></rc>
    <rc><c>O </c><c>   2</c></rc>
    <rc><c>O </c><c>   2</c></rc>
    <rc><c>O </c><c>   2</c></rc>
    <rc><c>O </c><c>   2</c></rc>
    <rc><c>O </c><c>   2</c></rc>
    <rc><c>O </c><c>   2</c></rc>
    <rc><c>O </c><c>   2</c></rc>
    <rc><c>O </c><c>   2</c></rc>
    <rc><c>O </c><c>   2</c></rc>
    <rc><c>O </c><c>   2</c></rc>
    <rc><c>O </c><c>   2</c></rc>
    <rc><c>O </c><c>   2</c></rc>
    <rc><c>O </c><c>   2</c></rc>
    <rc><c>O </c><c>   2</c></rc>
    <rc><c>O </c><c>   2</c></rc>
    <rc><c>O </c><c>   2</c></rc>
    <rc><c>O </c><c>   2</c></rc>
    <rc><c>O </c><c>   2</c></rc>
    <rc><c>O </c><c>   2</c></rc>
    <rc><c>O </c><c>   2</c></rc>
    <rc><c>O </c><c>   2</c></rc>
    <rc><c>O </c><c>   2</c></rc>
    <rc><c>O </c><c>   2</c></rc>
    <rc><c>O </c><c>   2</c></rc>
    <rc><c>O </c><c>   2</c></rc>
    <rc><c>O </c><c>   2</c></rc>
    <rc><c>O </c><c>   2</c></rc>
    <rc><c>O </c><c>   2</c></rc>
    <rc><c>O </c><c>   2</c></rc>
    <rc><c>O </c><c>   2</c></rc>
    <rc><c>O </c><c>   2</c></rc>
    <rc><c>O </c><c>   2</c></rc>
    <rc><c>O </c><c>   2</c></rc>
    <rc><c>O </c><c>   2</c></rc>
    <rc><c>O </c><c>   2</c></rc>
    <rc><c>O </c><c>   2</c></rc>
    <rc><c>O </c><c>   2</c></rc>
    <rc><c>O </c><c>   2</c></rc>
    <rc><c>O </c><c>   2</c></rc>
    <rc><c>O </c><c>   2</c></rc>
    <rc><c>O </c><c>   2</c></rc>
    <rc><c>O </c><c>   2</c></rc>
    <rc><c>O </c><c>   2</c></rc>
    <rc><c>O </c><c>   2</c></rc>
    <rc><c>O </c><c>   2</c></rc>
    <rc><c>O </c><c>   2</c></rc>
    <rc><c>O </c><c>   2</c></rc>
    <rc><c>O </c><c>   2</c></rc>
    <rc><c>O </c><c>   2</c></rc>
    <rc><c>O </c><c>   2</c></rc>
    <rc><c>O </c><c>   2</c></rc>
    <rc><c>O </c><c>   2</c></rc>
    <rc><c>O </c><c>   2</c></rc>
    <rc><c>O </c><c>   2</c></rc>
    <rc><c>O </c><c>   2</c></rc>
    <rc><c>O </c><c>   2</c></rc>
    <rc><c>O </c><c>   2</c></rc>
    <rc><c>O </c><c>   2</c></rc>
    <rc><c>O </c><c>   2</c></rc>
    <rc><c>O </c><c>   2</c></rc>
    <rc><c>O </c><c>   2</c></rc>
    <rc><c>O </c><c>   2</c></rc>
    <rc><c>O </c><c>   2</c></rc>
    <rc><c>O </c><c>   2</c></rc>
    <rc><c>O </c><c>   2</c></rc>
    <rc><c>O </c><c>   2</c></rc>
    <rc><c>O </c><c>   2</c></rc>
    <rc><c>O </c><c>   2</c></rc>
    <rc><c>O </c><c>   2</c></rc>
    <rc><c>O </c><c>   2</c></rc>
    <rc><c>O </c><c>   2</c></rc>
    <rc><c>O </c><c>   2</c></rc>
    <rc><c>O </c><c>   2</c></rc>
    <rc><c>O </c><c>   2</c></rc>
    <rc><c>O </c><c>   2</c></rc>
    <rc><c>O </c><c>   2</c></rc>
    <rc><c>O </c><c>   2</c></rc>
    <rc><c>O </c><c>   2</c></rc>
    <rc><c>O </c><c>   2</c></rc>
    <rc><c>O </c><c>   2</c></rc>
    <rc><c>O </c><c>   2</c></rc>
    <rc><c>O </c><c>   2</c></rc>
    <rc><c>O </c><c>   2</c></rc>
    <rc><c>O </c><c>   2</c></rc>
    <rc><c>O </c><c>   2</c></rc>
    <rc><c>O </c><c>   2</c></rc>
    <rc><c>O </c><c>   2</c></rc>
    <rc><c>O </c><c>   2</c></rc>
    <rc><c>O </c><c>   2</c></rc>
    <rc><c>O </c><c>   2</c></rc>
    <rc><c>O </c><c>   2</c></rc>
    <rc><c>O </c><c>   2</c></rc>
    <rc><c>O </c><c>   2</c></rc>
    <rc><c>O </c><c>   2</c></rc>
    <rc><c>O </c><c>   2</c></rc>
    <rc><c>O </c><c>   2</c></rc>
    <rc><c>O </c><c>   2</c></rc>
    <rc><c>O </c><c>   2</c></rc>
    <rc><c>O </c><c>   2</c></rc>
    <rc><c>O </c><c>   2</c></rc>
    <rc><c>O </c><c>   2</c></rc>
    <rc><c>O </c><c>   2</c></rc>
    <rc><c>O </c><c>   2</c></rc>
    <rc><c>O </c><c>   2</c></rc>
    <rc><c>O </c><c>   2</c></rc>
    <rc><c>O </c><c>   2</c></rc>
    <rc><c>O </c><c>   2</c></rc>
    <rc><c>O </c><c>   2</c></rc>
    <rc><c>O </c><c>   2</c></rc>
    <rc><c>O </c><c>   2</c></rc>
   </set>
  </array>
  <array name="atomtypes" >
   <dimension dim="1">type</dimension>
   <field type="int">atomspertype</field>
   <field type="string">element</field>
   <field>mass</field>
   <field>valence</field>
   <field type="string">pseudopotential</field>
   <set>
    <rc><c> 125</c><c>Ni</c><c>     58.69000000</c><c>     10.00000000</c><c>  PAW Ni_GW 31Mar2010                   </c></rc>
    <rc><c> 126</c><c>O </c><c>     16.00000000</c><c>      6.00000000</c><c>  PAW O_GW 19Mar2012                    </c></rc>
   </set>
  </array>
 </atominfo>
 <structure name="initialpos" >
  <crystal>
   <varray name="basis" >
    <v>      10.54150009       0.00000000       0.00000000 </v>
    <v>       5.27075005       9.12920687       0.00000000 </v>
    <v>       0.00000000       0.00000000      28.54150009 </v>
   </varray>
   <i name="volume">   2746.70653362 </i>
   <varray name="rec_basis" >
    <v>       0.09486316      -0.05476927       0.00000000 </v>
    <v>       0.00000000       0.10953854       0.00000000 </v>
    <v>       0.00000000       0.00000000       0.03503670 </v>
   </varray>
  </crystal>
  <varray name="positions" >
   <v>       0.00000000       0.00000000       0.00000000 </v>
   <v>       0.00000000       0.00000000       0.07386788 </v>
   <v>       0.00000000       0.00000000       0.14773576 </v>
   <v>       0.00000000       0.00000000       0.22160364 </v>
   <v>       0.00000000       0.00000000       0.29547151 </v>
   <v>       0.00000000       0.20000000       0.00000000 </v>
   <v>       0.00000000       0.20000000       0.07386788 </v>
   <v>       0.00000000       0.20000000       0.14773576 </v>
   <v>       0.00000000       0.20000000       0.22160364 </v>
   <v>       0.00000000       0.20000000       0.29547151 </v>
   <v>       0.00000000       0.40000001       0.00000000 </v>
   <v>       0.00000000       0.40000001       0.07386788 </v>
   <v>       0.00000000       0.40000001       0.14773576 </v>
   <v>       0.00000000       0.40000001       0.22160364 </v>
   <v>       0.00000000       0.40000001       0.29547151 </v>
   <v>       0.00000000       0.60000002       0.00000000 </v>
   <v>       0.00000000       0.60000002       0.07386788 </v>
   <v>       0.00000000       0.60000002       0.14773576 </v>
   <v>       0.00000000       0.60000002       0.22160364 </v>
   <v>       0.00000000       0.60000002       0.29547151 </v>
   <v>       0.00000000       0.80000001       0.00000000 </v>
   <v>       0.00000000       0.80000001       0.07386788 </v>
   <v>       0.00000000       0.80000001       0.14773576 </v>
   <v>       0.00000000       0.80000001       0.22160364 </v>
   <v>       0.00000000       0.80000001       0.29547151 </v>
   <v>       0.20000000       0.00000000       0.00000000 </v>
   <v>       0.20000000       0.00000000       0.07386788 </v>
   <v>       0.20000000       0.00000000       0.14773576 </v>
   <v>       0.20000000       0.00000000       0.22160364 </v>
   <v>       0.20000000       0.00000000       0.29547151 </v>
   <v>       0.20000000       0.20000000       0.00000000 </v>
   <v>       0.20000000       0.20000000       0.07386788 </v>
   <v>       0.20000000       0.20000000       0.14773576 </v>
   <v>       0.20000000       0.20000000       0.22160364 </v>
   <v>       0.20000000       0.20000000       0.29547151 </v>
   <v>       0.20000000       0.40000001       0.00000000 </v>
   <v>       0.20000000       0.40000001       0.07386788 </v>
   <v>       0.20000000       0.40000001       0.14773576 </v>
   <v>       0.20000000       0.40000001       0.22160364 </v>
   <v>       0.20000000       0.40000001       0.29547151 </v>
   <v>       0.20000000       0.60000002       0.00000000 </v>
   <v>       0.20000000       0.60000002       0.07386788 </v>
   <v>       0.20000000       0.60000002       0.14773576 </v>
   <v>       0.20000000       0.60000002       0.22160364 </v>
   <v>       0.20000000       0.60000002       0.29547151 </v>
   <v>       0.20000000       0.80000001       0.00000000 </v>
   <v>       0.20000000       0.80000001       0.07386788 </v>
   <v>       0.20000000       0.80000001       0.14773576 </v>
   <v>       0.20000000       0.80000001       0.22160364 </v>
   <v>       0.20000000       0.80000001       0.29547151 </v>
   <v>       0.40000001       0.00000000       0.00000000 </v>
   <v>       0.40000001       0.00000000       0.07386788 </v>
   <v>       0.40000001       0.00000000       0.14773576 </v>
   <v>       0.40000001       0.00000000       0.22160364 </v>
   <v>       0.40000001       0.00000000       0.29547151 </v>
   <v>       0.40000001       0.20000000       0.00000000 </v>
   <v>       0.40000001       0.20000000       0.07386788 </v>
   <v>       0.40000001       0.20000000       0.14773576 </v>
   <v>       0.40000001       0.20000000       0.22160364 </v>
   <v>       0.40000001       0.20000000       0.29547151 </v>
   <v>       0.40000001       0.40000001       0.00000000 </v>
   <v>       0.40000001       0.40000001       0.07386788 </v>
   <v>       0.40000001       0.40000001       0.14773576 </v>
   <v>       0.40000001       0.40000001       0.22160364 </v>
   <v>       0.40000001       0.40000001       0.29547151 </v>
   <v>       0.40000001       0.60000002       0.00000000 </v>
   <v>       0.40000001       0.60000002       0.07386788 </v>
   <v>       0.40000001       0.60000002       0.14773576 </v>
   <v>       0.40000001       0.60000002       0.22160364 </v>
   <v>       0.40000001       0.60000002       0.29547151 </v>
   <v>       0.40000001       0.80000001       0.00000000 </v>
   <v>       0.40000001       0.80000001       0.07386788 </v>
   <v>       0.40000001       0.80000001       0.14773576 </v>
   <v>       0.40000001       0.80000001       0.22160364 </v>
   <v>       0.40000001       0.80000001       0.29547151 </v>
   <v>       0.60000002       0.00000000       0.00000000 </v>
   <v>       0.60000002       0.00000000       0.07386788 </v>
   <v>       0.60000002       0.00000000       0.14773576 </v>
   <v>       0.60000002       0.00000000       0.22160364 </v>
   <v>       0.60000002       0.00000000       0.29547151 </v>
   <v>       0.60000002       0.20000000       0.00000000 </v>
   <v>       0.60000002       0.20000000       0.07386788 </v>
   <v>       0.60000002       0.20000000       0.14773576 </v>
   <v>       0.60000002       0.20000000       0.22160364 </v>
   <v>       0.60000002       0.20000000       0.29547151 </v>
   <v>       0.60000002       0.40000001       0.00000000 </v>
   <v>       0.60000002       0.40000001       0.07386788 </v>
   <v>       0.60000002       0.40000001       0.14773576 </v>
   <v>       0.60000002       0.40000001       0.22160364 </v>
   <v>       0.60000002       0.40000001       0.29547151 </v>
   <v>       0.60000002       0.60000002       0.00000000 </v>
   <v>       0.60000002       0.60000002       0.07386788 </v>
   <v>       0.60000002       0.60000002       0.14773576 </v>
   <v>       0.60000002       0.60000002       0.22160364 </v>
   <v>       0.60000002       0.60000002       0.29547151 </v>
   <v>       0.60000002       0.80000001       0.00000000 </v>
   <v>       0.60000002       0.80000001       0.07386788 </v>
   <v>       0.60000002       0.80000001       0.14773576 </v>
   <v>       0.60000002       0.80000001       0.22160364 </v>
   <v>       0.60000002       0.80000001       0.29547151 </v>
   <v>       0.80000001       0.00000000       0.00000000 </v>
   <v>       0.80000001       0.00000000       0.07386788 </v>
   <v>       0.80000001       0.00000000       0.14773576 </v>
   <v>       0.80000001       0.00000000       0.22160364 </v>
   <v>       0.80000001       0.00000000       0.29547151 </v>
   <v>       0.80000001       0.20000000       0.00000000 </v>
   <v>       0.80000001       0.20000000       0.07386788 </v>
   <v>       0.80000001       0.20000000       0.14773576 </v>
   <v>       0.80000001       0.20000000       0.22160364 </v>
   <v>       0.80000001       0.20000000       0.29547151 </v>
   <v>       0.80000001       0.40000001       0.00000000 </v>
   <v>       0.80000001       0.40000001       0.07386788 </v>
   <v>       0.80000001       0.40000001       0.14773576 </v>
   <v>       0.80000001       0.40000001       0.22160364 </v>
   <v>       0.80000001       0.40000001       0.29547151 </v>
   <v>       0.80000001       0.60000002       0.00000000 </v>
   <v>       0.80000001       0.60000002       0.07386788 </v>
   <v>       0.80000001       0.60000002       0.14773576 </v>
   <v>       0.80000001       0.60000002       0.22160364 </v>
   <v>       0.80000001       0.60000002       0.29547151 </v>
   <v>       0.80000001       0.80000001       0.00000000 </v>
   <v>       0.80000001       0.80000001       0.07386788 </v>
   <v>       0.80000001       0.80000001       0.14773576 </v>
   <v>       0.80000001       0.80000001       0.22160364 </v>
   <v>       0.80000001       0.80000001       0.29547151 </v>
   <v>       0.10000000       0.10000000       0.03693394 </v>
   <v>       0.10000000       0.10000000       0.11080182 </v>
   <v>       0.10000000       0.10000000       0.18466969 </v>
   <v>       0.10000000       0.10000000       0.25853757 </v>
   <v>       0.10000000       0.10000000       0.33240544 </v>
   <v>       0.10000000       0.30000001       0.03693394 </v>
   <v>       0.10000000       0.30000001       0.11080182 </v>
   <v>       0.10000000       0.30000001       0.18466969 </v>
   <v>       0.10000000       0.30000001       0.25853757 </v>
   <v>       0.10000000       0.30000001       0.33240544 </v>
   <v>       0.10000000       0.50000000       0.03693394 </v>
   <v>       0.10000000       0.50000000       0.11080182 </v>
   <v>       0.10000000       0.50000000       0.18466969 </v>
   <v>       0.10000000       0.50000000       0.25853757 </v>
   <v>       0.10000000       0.50000000       0.33240544 </v>
   <v>       0.10000000       0.69999999       0.03693394 </v>
   <v>       0.10000000       0.69999999       0.11080182 </v>
   <v>       0.10000000       0.69999999       0.18466969 </v>
   <v>       0.10000000       0.69999999       0.25853757 </v>
   <v>       0.10000000       0.69999999       0.33240544 </v>
   <v>       0.10000000       0.89999998       0.03693394 </v>
   <v>       0.10000000       0.89999998       0.11080182 </v>
   <v>       0.10000000       0.89999998       0.18466969 </v>
   <v>       0.10000000       0.89999998       0.25853757 </v>
   <v>       0.10000000       0.89999998       0.33240544 </v>
   <v>       0.30000001       0.10000000       0.03693394 </v>
   <v>       0.30000001       0.10000000       0.11080182 </v>
   <v>       0.30000001       0.10000000       0.18466969 </v>
   <v>       0.30000001       0.10000000       0.25853757 </v>
   <v>       0.30000001       0.10000000       0.33240544 </v>
   <v>       0.30000001       0.30000001       0.03693394 </v>
   <v>       0.30000001       0.30000001       0.11080182 </v>
   <v>       0.30000001       0.30000001       0.18466969 </v>
   <v>       0.30000001       0.30000001       0.25853757 </v>
   <v>       0.30000001       0.30000001       0.33240544 </v>
   <v>       0.30000001       0.50000000       0.03693394 </v>
   <v>       0.30000001       0.50000000       0.11080182 </v>
   <v>       0.30000001       0.50000000       0.18466969 </v>
   <v>       0.30000001       0.50000000       0.25853757 </v>
   <v>       0.30000001       0.50000000       0.33240544 </v>
   <v>       0.30000001       0.69999999       0.03693394 </v>
   <v>       0.30000001       0.69999999       0.11080182 </v>
   <v>       0.30000001       0.69999999       0.18466969 </v>
   <v>       0.30000001       0.69999999       0.25853757 </v>
   <v>       0.30000001       0.69999999       0.33240544 </v>
   <v>       0.30000001       0.89999998       0.03693394 </v>
   <v>       0.30000001       0.89999998       0.11080182 </v>
   <v>       0.30000001       0.89999998       0.18466969 </v>
   <v>       0.30000001       0.89999998       0.25853757 </v>
   <v>       0.30000001       0.89999998       0.33240544 </v>
   <v>       0.50000000       0.10000000       0.03693394 </v>
   <v>       0.50000000       0.10000000       0.11080182 </v>
   <v>       0.50000000       0.10000000       0.18466969 </v>
   <v>       0.50000000       0.10000000       0.25853757 </v>
   <v>       0.50000000       0.10000000       0.33240544 </v>
   <v>       0.50000000       0.30000001       0.03693394 </v>
   <v>       0.50000000       0.30000001       0.11080182 </v>
   <v>       0.50000000       0.30000001       0.18466969 </v>
   <v>       0.50000000       0.30000001       0.25853757 </v>
   <v>       0.50000000       0.30000001       0.33240544 </v>
   <v>       0.50000000       0.50000000       0.03693394 </v>
   <v>       0.50000000       0.50000000       0.11080182 </v>
   <v>       0.50000000       0.50000000       0.18466969 </v>
   <v>       0.50000000       0.50000000       0.25853757 </v>
   <v>       0.50000000       0.50000000       0.33240544 </v>
   <v>       0.50000000       0.69999999       0.03693394 </v>
   <v>       0.50000000       0.69999999       0.11080182 </v>
   <v>       0.50000000       0.69999999       0.18466969 </v>
   <v>       0.50000000       0.69999999       0.25853757 </v>
   <v>       0.50000000       0.69999999       0.33240544 </v>
   <v>       0.50000000       0.89999998       0.03693394 </v>
   <v>       0.50000000       0.89999998       0.11080182 </v>
   <v>       0.50000000       0.89999998       0.18466969 </v>
   <v>       0.50000000       0.89999998       0.25853757 </v>
   <v>       0.50000000       0.89999998       0.33240544 </v>
   <v>       0.69999999       0.10000000       0.03693394 </v>
   <v>       0.69999999       0.10000000       0.11080182 </v>
   <v>       0.69999999       0.10000000       0.18466969 </v>
   <v>       0.69999999       0.10000000       0.25853757 </v>
   <v>       0.69999999       0.10000000       0.33240544 </v>
   <v>       0.69999999       0.30000001       0.03693394 </v>
   <v>       0.69999999       0.30000001       0.11080182 </v>
   <v>       0.69999999       0.30000001       0.18466969 </v>
   <v>       0.69999999       0.30000001       0.25853757 </v>
   <v>       0.69999999       0.30000001       0.33240544 </v>
   <v>       0.69999999       0.50000000       0.03693394 </v>
   <v>       0.69999999       0.50000000       0.11080182 </v>
   <v>       0.69999999       0.50000000       0.18466969 </v>
   <v>       0.69999999       0.50000000       0.25853757 </v>
   <v>       0.69999999       0.50000000       0.33240544 </v>
   <v>       0.69999999       0.69999999       0.03693394 </v>
   <v>       0.69999999       0.69999999       0.11080182 </v>
   <v>       0.69999999       0.69999999       0.18466969 </v>
   <v>       0.69999999       0.69999999       0.25853757 </v>
   <v>       0.69999999       0.69999999       0.33240544 </v>
   <v>       0.69999999       0.89999998       0.03693394 </v>
   <v>       0.69999999       0.89999998       0.11080182 </v>
   <v>       0.69999999       0.89999998       0.18466969 </v>
   <v>       0.69999999       0.89999998       0.25853757 </v>
   <v>       0.69999999       0.89999998       0.33240544 </v>
   <v>       0.89999998       0.10000000       0.03693394 </v>
   <v>       0.89999998       0.10000000       0.11080182 </v>
   <v>       0.89999998       0.10000000       0.18466969 </v>
   <v>       0.89999998       0.10000000       0.25853757 </v>
   <v>       0.89999998       0.10000000       0.33240544 </v>
   <v>       0.89999998       0.30000001       0.03693394 </v>
   <v>       0.89999998       0.30000001       0.11080182 </v>
   <v>       0.89999998       0.30000001       0.18466969 </v>
   <v>       0.89999998       0.30000001       0.25853757 </v>
   <v>       0.89999998       0.30000001       0.33240544 </v>
   <v>       0.89999998       0.50000000       0.03693394 </v>
   <v>       0.89999998       0.50000000       0.11080182 </v>
   <v>       0.89999998       0.50000000       0.18466969 </v>
   <v>       0.89999998       0.50000000       0.25853757 </v>
   <v>       0.89999998       0.50000000       0.33240544 </v>
   <v>       0.89999998       0.69999999       0.03693394 </v>
   <v>       0.89999998       0.69999999       0.11080182 </v>
   <v>       0.89999998       0.69999999       0.18466969 </v>
   <v>       0.89999998       0.69999999       0.25853757 </v>
   <v>       0.89999998       0.69999999       0.33240544 </v>
   <v>       0.89999998       0.89999998       0.03693394 </v>
   <v>       0.89999998       0.89999998       0.11080182 </v>
   <v>       0.89999998       0.89999998       0.18466969 </v>
   <v>       0.89999998       0.89999998       0.25853757 </v>
   <v>       0.89999998       0.89999998       0.33240544 </v>
   <v>       0.42141986       0.42141986       0.36744214 </v>
  </varray>
 </structure>
 <calculation>
  <scstep>
   <time name="dav">   12.96   12.98</time>
   <time name="total">   13.45   13.60</time>
   <energy>
    <i name="alphaZ">  10923.08332430 </i>
    <i name="ewald">3376957.84474583 </i>
    <i name="hartreedc">**************** </i>
    <i name="XCdc">   5471.22369199 </i>
    <i name="pawpsdc"> 163014.54298785 </i>
    <i name="pawaedc">-172616.29869954 </i>
    <i name="eentropy">     -0.06036611 </i>
    <i name="bandstr">  16479.90122250 </i>
    <i name="atom"> 189132.72770211 </i>
    <i name="e_fr_energy">  31106.56507314 </i>
    <i name="e_wo_entrp">  31106.62543926 </i>
    <i name="e_0_energy">  31106.59525620 </i>
   </energy>
  </scstep>
  <scstep>
   <time name="dav">   13.24   13.24</time>
   <time name="total">   13.24   13.24</time>
   <energy>
    <i name="e_fr_energy">   5174.67104269 </i>
    <i name="e_wo_entrp">   5174.73610577 </i>
    <i name="e_0_energy">   5174.70357423 </i>
   </energy>
  </scstep>
  <scstep>
   <time name="dav">   15.24   15.24</time>
   <time name="total">   15.24   15.24</time>
   <energy>
    <i name="e_fr_energy">    530.96527551 </i>
    <i name="e_wo_entrp">    531.09127046 </i>
    <i name="e_0_energy">    531.02827298 </i>
   </energy>
  </scstep>
  <scstep>
   <time name="dav">   17.26   17.26</time>
   <time name="total">   17.27   17.27</time>
   <energy>
    <i name="e_fr_energy">      8.07173241 </i>
    <i name="e_wo_entrp">      8.23890729 </i>
    <i name="e_0_energy">      8.15531985 </i>
   </energy>
  </scstep>
  <scstep>
   <time name="dav">   16.20   16.20</time>
   <time name="total">   16.88   16.89</time>
   <energy>
    <i name="e_fr_energy">     -9.08533065 </i>
    <i name="e_wo_entrp">     -8.91699469 </i>
    <i name="e_0_energy">     -9.00116267 </i>
   </energy>
  </scstep>
  <scstep>
   <time name="dav">   19.80   19.80</time>
   <time name="total">   20.94   20.94</time>
   <energy>
    <i name="e_fr_energy">   -371.03295456 </i>
    <i name="e_wo_entrp">   -370.92898149 </i>
    <i name="e_0_energy">   -370.98096803 </i>
   </energy>
  </scstep>
  <scstep>
   <time name="dav">   18.93   18.94</time>
   <time name="total">   20.09   20.09</time>
   <energy>
    <i name="e_fr_energy"> -10249.95713755 </i>
    <i name="e_wo_entrp"> -10249.91025289 </i>
    <i name="e_0_energy"> -10249.93369522 </i>
   </energy>
  </scstep>
  <scstep>
   <time name="dav">   19.26   19.26</time>
   <time name="total">   20.41   20.41</time>
   <energy>
    <i name="e_fr_energy"> -11546.73740996 </i>
    <i name="e_wo_entrp"> -11546.66400034 </i>
    <i name="e_0_energy"> -11546.70070515 </i>
   </energy>
  </scstep>
  <scstep>
   <time name="dav">   17.66   17.66</time>
   <time name="total">   18.80   18.80</time>
   <energy>
    <i name="e_fr_energy">  -8458.33173410 </i>
    <i name="e_wo_entrp">  -8458.25707207 </i>
    <i name="e_0_energy">  -8458.29440308 </i>
   </energy>
  </scstep>
  <scstep>
   <time name="dav">   20.67   20.67</time>
   <time name="total">   21.84   21.84</time>
   <energy>
    <i name="e_fr_energy">  -3539.87207436 </i>
    <i name="e_wo_entrp">  -3539.77965565 </i>
    <i name="e_0_energy">  -3539.82586500 </i>
   </energy>
  </scstep>
  <scstep>
   <time name="dav">   18.22   18.22</time>
   <time name="total">   19.35   19.35</time>
   <energy>
    <i name="e_fr_energy">  -1436.51990350 </i>
    <i name="e_wo_entrp">  -1436.38028507 </i>
    <i name="e_0_energy">  -1436.45009428 </i>
   </energy>
  </scstep>
  <scstep>
   <time name="dav">   18.41   18.41</time>
   <time name="total">   19.57   19.57</time>
   <energy>
    <i name="e_fr_energy">   -780.25756007 </i>
    <i name="e_wo_entrp">   -780.18859646 </i>
    <i name="e_0_energy">   -780.22307827 </i>
   </energy>
  </scstep>
  <scstep>
   <time name="dav">   17.78   17.78</time>
   <time name="total">   18.92   18.92</time>
   <energy>
    <i name="e_fr_energy">  -2025.43700565 </i>
    <i name="e_wo_entrp">  -2025.31102082 </i>
    <i name="e_0_energy">  -2025.37401324 </i>
   </energy>
  </scstep>
  <scstep>
   <time name="dav">   17.61   17.61</time>
   <time name="total">   18.77   18.77</time>
   <energy>
    <i name="e_fr_energy">   -815.94868630 </i>
    <i name="e_wo_entrp">   -815.88936795 </i>
    <i name="e_0_energy">   -815.91902713 </i>
   </energy>
  </scstep>
  <scstep>
   <time name="dav">   16.64   16.65</time>
   <time name="total">   17.81   17.81</time>
   <energy>
    <i name="e_fr_energy">  -3001.15268563 </i>
    <i name="e_wo_entrp">  -3001.11780527 </i>
    <i name="e_0_energy">  -3001.13524545 </i>
   </energy>
  </scstep>
  <scstep>
   <time name="dav">   17.39   17.40</time>
   <time name="total">   18.53   18.53</time>
   <energy>
    <i name="e_fr_energy">  -1327.20118973 </i>
    <i name="e_wo_entrp">  -1327.14249396 </i>
    <i name="e_0_energy">  -1327.17184185 </i>
   </energy>
  </scstep>
  <scstep>
   <time name="dav">   19.37   19.37</time>
   <time name="total">   20.55   20.55</time>
   <energy>
    <i name="e_fr_energy">   -452.57594833 </i>
    <i name="e_wo_entrp">   -452.54597156 </i>
    <i name="e_0_energy">   -452.56095995 </i>
   </energy>
  </scstep>
  <scstep>
   <time name="dav">   20.10   20.10</time>
   <time name="total">   21.26   21.26</time>
   <energy>
    <i name="e_fr_energy">    273.06301703 </i>
    <i name="e_wo_entrp">    273.18737343 </i>
    <i name="e_0_energy">    273.12519523 </i>
   </energy>
  </scstep>
  <scstep>
   <time name="dav">   18.42   18.42</time>
   <time name="total">   19.60   19.61</time>
   <energy>
    <i name="e_fr_energy">    412.95021608 </i>
    <i name="e_wo_entrp">    413.09185654 </i>
    <i name="e_0_energy">    413.02103631 </i>
   </energy>
  </scstep>
  <scstep>
   <time name="dav">   13.70   13.70</time>
   <time name="total">   14.88   14.88</time>
   <energy>
    <i name="e_fr_energy">    403.28347714 </i>
    <i name="e_wo_entrp">    403.44500849 </i>
    <i name="e_0_energy">    403.36424282 </i>
   </energy>
  </scstep>
  <scstep>
   <time name="dav">   13.38   13.39</time>
   <time name="total">   14.59   14.60</time>
   <energy>
    <i name="e_fr_energy">    404.03940360 </i>
    <i name="e_wo_entrp">    404.22653853 </i>
    <i name="e_0_energy">    404.13297107 </i>
   </energy>
  </scstep>
  <scstep>
   <time name="dav">   13.67   13.68</time>
   <time name="total">   14.85   14.85</time>
   <energy>
    <i name="e_fr_energy">    399.62870720 </i>
    <i name="e_wo_entrp">    399.80933638 </i>
    <i name="e_0_energy">    399.71902179 </i>
   </energy>
  </scstep>
  <scstep>
   <time name="dav">   13.68   13.68</time>
   <time name="total">   14.90   14.90</time>
   <energy>
    <i name="e_fr_energy">    405.51603562 </i>
    <i name="e_wo_entrp">    405.74963584 </i>
    <i name="e_0_energy">    405.63283573 </i>
   </energy>
  </scstep>
  <scstep>
   <time name="dav">   13.48   13.49</time>
   <time name="total">   14.68   14.69</time>
   <energy>
    <i name="e_fr_energy">    404.29763016 </i>
    <i name="e_wo_entrp">    404.45868442 </i>
    <i name="e_0_energy">    404.37815729 </i>
   </energy>
  </scstep>
  <scstep>
   <time name="dav">   18.47   18.47</time>
   <time name="total">   19.70   19.70</time>
   <energy>
    <i name="e_fr_energy">    408.03903662 </i>
    <i name="e_wo_entrp">    408.17581864 </i>
    <i name="e_0_energy">    408.10742763 </i>
   </energy>
  </scstep>
  <scstep>
   <time name="dav">   15.97   15.97</time>
   <time name="total">   17.19   17.19</time>
   <energy>
    <i name="e_fr_energy">    406.63855526 </i>
    <i name="e_wo_entrp">    406.82588241 </i>
    <i name="e_0_energy">    406.73221884 </i>
   </energy>
  </scstep>
  <scstep>
   <time name="dav">   16.27   16.28</time>
   <time name="total">   17.53   17.53</time>
   <energy>
    <i name="e_fr_energy">    413.21205180 </i>
    <i name="e_wo_entrp">    413.34480620 </i>
    <i name="e_0_energy">    413.27842900 </i>
   </energy>
  </scstep>
  <scstep>
   <time name="dav">   13.74   13.74</time>
   <time name="total">   14.98   14.98</time>
   <energy>
    <i name="e_fr_energy">    418.18824773 </i>
    <i name="e_wo_entrp">    418.37639044 </i>
    <i name="e_0_energy">    418.28231909 </i>
   </energy>
  </scstep>
  <scstep>
   <time name="dav">   16.46   16.46</time>
   <time name="total">   17.73   17.74</time>
   <energy>
    <i name="e_fr_energy">    401.71846383 </i>
    <i name="e_wo_entrp">    401.80280519 </i>
    <i name="e_0_energy">    401.76063451 </i>
   </energy>
  </scstep>
  <scstep>
   <time name="dav">   13.88   13.88</time>
   <time name="total">   15.14   15.14</time>
   <energy>
    <i name="e_fr_energy">    412.54073071 </i>
    <i name="e_wo_entrp">    412.65585152 </i>
    <i name="e_0_energy">    412.59829111 </i>
   </energy>
  </scstep>
  <scstep>
   <time name="dav">   13.58   13.58</time>
   <time name="total">   14.87   14.87</time>
   <energy>
    <i name="e_fr_energy">    418.32479850 </i>
    <i name="e_wo_entrp">    418.44872624 </i>
    <i name="e_0_energy">    418.38676237 </i>
   </energy>
  </scstep>
  <scstep>
   <time name="dav">   13.58   13.58</time>
   <time name="total">   14.84   14.84</time>
   <energy>
    <i name="e_fr_energy">    415.15393767 </i>
    <i name="e_wo_entrp">    415.27303174 </i>
    <i name="e_0_energy">    415.21348470 </i>
   </energy>
  </scstep>
  <scstep>
   <time name="dav">   14.49   14.50</time>
   <time name="total">   15.79   15.79</time>
   <energy>
    <i name="e_fr_energy">    419.90674708 </i>
    <i name="e_wo_entrp">    420.01944816 </i>
    <i name="e_0_energy">    419.96309762 </i>
   </energy>
  </scstep>
  <scstep>
   <time name="dav">   13.80   13.80</time>
   <time name="total">   15.08   15.08</time>
   <energy>
    <i name="e_fr_energy">    418.71382084 </i>
    <i name="e_wo_entrp">    418.82260676 </i>
    <i name="e_0_energy">    418.76821380 </i>
   </energy>
  </scstep>
  <scstep>
   <time name="dav">   14.40   14.40</time>
   <time name="total">   15.73   15.73</time>
[...]
       <r>     2.7667   321.6155  1775.9075 </r>
       <r>     2.8926   314.6373  1815.5374 </r>
       <r>     3.0186   317.5712  1855.5369 </r>
       <r>     3.1445   308.6860  1894.4172 </r>
       <r>     3.2705   313.1889  1933.8647 </r>
       <r>     3.3964   297.5101  1971.3374 </r>
       <r>     3.5224   274.6871  2005.9354 </r>
       <r>     3.6483   257.6972  2038.3935 </r>
       <r>     3.7743   212.0230  2065.0987 </r>
       <r>     3.9003   180.7761  2087.8682 </r>
       <r>     4.0262   178.6479  2110.3697 </r>
       <r>     4.1522   176.4345  2132.5924 </r>
       <r>     4.2781   155.5888  2152.1895 </r>
       <r>     4.4041   146.4836  2170.6397 </r>
       <r>     4.5300   139.9881  2188.2718 </r>
       <r>     4.6560   134.4410  2205.2052 </r>
       <r>     4.7819   102.2580  2218.0851 </r>
       <r>     4.9079   105.4915  2231.3722 </r>
       <r>     5.0338    82.4998  2241.7634 </r>
       <r>     5.1598    58.3484  2249.1126 </r>
       <r>     5.2858    37.5824  2253.8463 </r>
       <r>     5.4117    15.2400  2255.7658 </r>
       <r>     5.5377    17.6445  2257.9882 </r>
       <r>     5.6636    20.6670  2260.5913 </r>
       <r>     5.7896    28.8251  2264.2220 </r>
       <r>     5.9155    21.7208  2266.9578 </r>
       <r>     6.0415    18.3687  2269.2714 </r>
       <r>     6.1674    25.0269  2272.4237 </r>
       <r>     6.2934    30.9671  2276.3241 </r>
       <r>     6.4193    31.4006  2280.2791 </r>
       <r>     6.5453    27.0289  2283.6835 </r>
       <r>     6.6712    34.0262  2287.9693 </r>
       <r>     6.7972    35.8385  2292.4833 </r>
       <r>     6.9232    26.9981  2295.8838 </r>
       <r>     7.0491    29.7621  2299.6325 </r>
       <r>     7.1751    49.6319  2305.8838 </r>
       <r>     7.3010    12.7731  2307.4927 </r>
       <r>     7.4270    18.3729  2309.8068 </r>
       <r>     7.5529    55.8516  2316.8416 </r>
       <r>     7.6789    41.8055  2322.1071 </r>
       <r>     7.8048    35.2738  2326.5500 </r>
       <r>     7.9308    41.9454  2331.8332 </r>
       <r>     8.0567    42.7480  2337.2175 </r>
       <r>     8.1827    29.4735  2340.9298 </r>
       <r>     8.3087    39.8799  2345.9529 </r>
       <r>     8.4346    25.7277  2349.1934 </r>
       <r>     8.5606    39.1557  2354.1252 </r>
       <r>     8.6865    35.7173  2358.6240 </r>
       <r>     8.8125    56.8420  2365.7835 </r>
       <r>     8.9384    34.5040  2370.1294 </r>
       <r>     9.0644    29.9512  2373.9019 </r>
       <r>     9.1903    47.8067  2379.9233 </r>
       <r>     9.3163    48.3990  2386.0194 </r>
       <r>     9.4422    38.6415  2390.8865 </r>
       <r>     9.5682    36.8671  2395.5300 </r>
       <r>     9.6942    52.1951  2402.1042 </r>
       <r>     9.8201    26.4861  2405.4403 </r>
       <r>     9.9461     4.3974  2405.9942 </r>
       <r>    10.0720     0.0464  2406.0000 </r>
       <r>    10.1980     0.0000  2406.0000 </r>
       <r>    10.3239     0.0000  2406.0000 </r>
       <r>    10.4499     0.0000  2406.0000 </r>
       <r>    10.5758     0.0000  2406.0000 </r>
       <r>    10.7018     0.0000  2406.0000 </r>
       <r>    10.8277     0.0000  2406.0000 </r>
       <r>    10.9537     0.0000  2406.0000 </r>
       <r>    11.0796     0.0000  2406.0000 </r>
       <r>    11.2056     0.0000  2406.0000 </r>
       <r>    11.3316     0.0000  2406.0000 </r>
       <r>    11.4575     0.0000  2406.0000 </r>
       <r>    11.5835     0.0000  2406.0000 </r>
      </set>
     </set>
    </array>
   </total>
  </dos>
 </calculation>
 <structure name="finalpos" >
  <crystal>
   <varray name="basis" >
    <v>      10.54150009       0.00000000       0.00000000 </v>
    <v>       5.27075005       9.12920687       0.00000000 </v>
    <v>       0.00000000       0.00000000      28.54150009 </v>
   </varray>
   <i name="volume">   2746.70653362 </i>
   <varray name="rec_basis" >
    <v>       0.09486316      -0.05476927       0.00000000 </v>
    <v>       0.00000000       0.10953854       0.00000000 </v>
    <v>       0.00000000       0.00000000       0.03503670 </v>
   </varray>
  </crystal>
  <varray name="positions" >
   <v>       0.00088274       0.00088274      -0.19758148 </v>
   <v>       0.00075538       0.00075538       0.03250566 </v>
   <v>      -0.03222259      -0.03222259       0.14810401 </v>
   <v>      -0.00809684      -0.00809684       0.27280361 </v>
   <v>      -0.01144244      -0.01144244       0.41114869 </v>
   <v>      -0.01426555       0.18471676      -0.13473466 </v>
   <v>      -0.01236898       0.19548212      -0.00337476 </v>
   <v>      -0.00621040       0.19688752       0.12832066 </v>
   <v>      -0.00482579       0.19933036       0.25947976 </v>
   <v>       0.00507234       0.20205043       0.37942782 </v>
   <v>       0.00777036       0.40266133      -0.12835659 </v>
   <v>      -0.01403960       0.41772178      -0.02073493 </v>
   <v>       0.01444075       0.37772732       0.15610927 </v>
   <v>      -0.00804240       0.40304333       0.25676013 </v>
   <v>       0.00806203       0.38679726       0.41415560 </v>
   <v>       0.01933715       0.61455737      -0.15861128 </v>
   <v>       0.09241135       0.51133500       0.02906570 </v>
   <v>       0.00193723       0.58253646       0.18639198 </v>
   <v>       0.00349552       0.59213338       0.30078114 </v>
   <v>      -0.00674466       0.62426675       0.42051783 </v>
   <v>       0.03786947       0.82083235      -0.13670520 </v>
   <v>       0.01866171       0.76926606      -0.01198212 </v>
   <v>      -0.02596382       0.77931608       0.10324204 </v>
   <v>       0.00031634       0.80370543       0.24566388 </v>
   <v>       0.01117314       0.76728179       0.36760717 </v>
   <v>       0.18471676      -0.01426555      -0.13473466 </v>
   <v>       0.19548212      -0.01236898      -0.00337476 </v>
   <v>       0.19688752      -0.00621040       0.12832066 </v>
   <v>       0.19933036      -0.00482579       0.25947976 </v>
   <v>       0.20205043       0.00507234       0.37942782 </v>
   <v>       0.21784273       0.21784273      -0.12484049 </v>
   <v>       0.20190666       0.20190666      -0.02202766 </v>
   <v>       0.19081657       0.19081657       0.08200429 </v>
   <v>       0.21414566       0.21414566       0.25993101 </v>
   <v>       0.21163828       0.21163828       0.36721623 </v>
   <v>       0.17308934       0.40119633      -0.19993929 </v>
   <v>       0.18286158       0.42206247      -0.05392662 </v>
   <v>       0.16333162       0.39748695       0.10897652 </v>
   <v>       0.20681556       0.40832362       0.30887036 </v>
   <v>       0.19948633       0.40177559       0.43475560 </v>
   <v>       0.23139522       0.60291984      -0.12387161 </v>
   <v>       0.23593633       0.59778157      -0.03231972 </v>
   <v>       0.20422444       0.61217382       0.10710495 </v>
   <v>       0.18485538       0.61796361       0.21205234 </v>
   <v>       0.19841062       0.60757690       0.42835456 </v>
   <v>       0.20595525       0.80139149      -0.18654886 </v>
   <v>       0.18186899       0.80715841       0.04934814 </v>
   <v>       0.19366116       0.80810984       0.16348934 </v>
   <v>       0.19896977       0.80636253       0.29259619 </v>
   <v>       0.20050594       0.78811554       0.39299678 </v>
   <v>       0.40266133       0.00777036      -0.12835659 </v>
   <v>       0.41772178      -0.01403960      -0.02073493 </v>
   <v>       0.37772732       0.01444075       0.15610927 </v>
   <v>       0.40304333      -0.00804240       0.25676013 </v>
   <v>       0.38679726       0.00806203       0.41415560 </v>
   <v>       0.40119633       0.17308934      -0.19993929 </v>
   <v>       0.42206247       0.18286158      -0.05392662 </v>
   <v>       0.39748695       0.16333162       0.10897652 </v>
   <v>       0.40832362       0.20681556       0.30887036 </v>
   <v>       0.40177559       0.19948633       0.43475560 </v>
   <v>       0.37045432       0.37045432      -0.16014984 </v>
   <v>       0.39842424       0.39842424       0.00492245 </v>
   <v>       0.40451866       0.40451866       0.11583421 </v>
   <v>       0.37725504       0.37725504       0.21206657 </v>
   <v>       0.40437180       0.40437180       0.32221613 </v>
   <v>       0.39509125       0.59450688      -0.17891770 </v>
   <v>       0.39408366       0.59083531       0.03596959 </v>
   <v>       0.41000788       0.60738851       0.15487944 </v>
   <v>       0.38922489       0.60277146       0.28077133 </v>
   <v>       0.39467884       0.58999186       0.39615430 </v>
   <v>       0.36653581       0.77504652      -0.11599090 </v>
   <v>       0.40606763       0.79576737       0.00489254 </v>
   <v>       0.41563584       0.78317594       0.11306723 </v>
   <v>       0.37199553       0.79791119       0.24120124 </v>
   <v>       0.40811412       0.79551099       0.39090174 </v>
   <v>       0.61455737       0.01933715      -0.15861128 </v>
   <v>       0.51133500       0.09241135       0.02906570 </v>
   <v>       0.58253646       0.00193723       0.18639198 </v>
   <v>       0.59213338       0.00349552       0.30078114 </v>
   <v>       0.62426675      -0.00674466       0.42051783 </v>
   <v>       0.60291984       0.23139522      -0.12387161 </v>
   <v>       0.59778157       0.23593633      -0.03231972 </v>
   <v>       0.61217382       0.20422444       0.10710495 </v>
   <v>       0.61796361       0.18485538       0.21205234 </v>
   <v>       0.60757690       0.19841062       0.42835456 </v>
   <v>       0.59450688       0.39509125      -0.17891770 </v>
   <v>       0.59083531       0.39408366       0.03596959 </v>
   <v>       0.60738851       0.41000788       0.15487944 </v>
   <v>       0.60277146       0.38922489       0.28077133 </v>
   <v>       0.58999186       0.39467884       0.39615430 </v>
   <v>       0.57436367       0.57436367      -0.12679552 </v>
   <v>       0.59959426       0.59959426      -0.00706466 </v>
   <v>       0.62786286       0.62786286       0.14558004 </v>
   <v>       0.59929070       0.59929070       0.24973810 </v>
   <v>       0.59504616       0.59504616       0.42764483 </v>
   <v>       0.57903938       0.80416414      -0.14997328 </v>
   <v>       0.60560174       0.81470407       0.01754205 </v>
   <v>       0.58766633       0.85677279       0.11691029 </v>
   <v>       0.59854882       0.79982551       0.26936776 </v>
   <v>       0.61192808       0.79990234       0.40269382 </v>
   <v>       0.82083235       0.03786947      -0.13670520 </v>
   <v>       0.76926606       0.01866171      -0.01198212 </v>
   <v>       0.77931608      -0.02596382       0.10324204 </v>
   <v>       0.80370543       0.00031634       0.24566388 </v>
   <v>       0.76728179       0.01117314       0.36760717 </v>
   <v>       0.80139149       0.20595525      -0.18654886 </v>
   <v>       0.80715841       0.18186899       0.04934814 </v>
   <v>       0.80810984       0.19366116       0.16348934 </v>
   <v>       0.80636253       0.19896977       0.29259619 </v>
   <v>       0.78811554       0.20050594       0.39299678 </v>
   <v>       0.77504652       0.36653581      -0.11599090 </v>
   <v>       0.79576737       0.40606763       0.00489254 </v>
   <v>       0.78317594       0.41563584       0.11306723 </v>
   <v>       0.79791119       0.37199553       0.24120124 </v>
   <v>       0.79551099       0.40811412       0.39090174 </v>
   <v>       0.80416414       0.57903938      -0.14997328 </v>
   <v>       0.81470407       0.60560174       0.01754205 </v>
   <v>       0.85677279       0.58766633       0.11691029 </v>
   <v>       0.79982551       0.59854882       0.26936776 </v>
   <v>       0.79990234       0.61192808       0.40269382 </v>
   <v>       0.80720484       0.80720484      -0.10447689 </v>
   <v>       0.79765333       0.79765333      -0.00819486 </v>
   <v>       0.81394106       0.81394106       0.17583801 </v>
   <v>       0.80395627       0.80395627       0.30501439 </v>
   <v>       0.79973356       0.79973356       0.45853141 </v>
   <v>       0.11282337       0.11282337      -0.04843956 </v>
   <v>       0.09205988       0.09205988       0.07439557 </v>
   <v>       0.09926801       0.09926801       0.18154015 </v>
   <v>       0.10147779       0.10147779       0.31314893 </v>
   <v>       0.08191777       0.08191777       0.45608226 </v>
   <v>       0.07905244       0.31066460      -0.07230707 </v>
   <v>       0.10267128       0.33948475       0.03196621 </v>
   <v>       0.12849781       0.31234696       0.20078284 </v>
   <v>       0.09770558       0.30802588       0.30732562 </v>
   <v>       0.05867581       0.30571396       0.47463107 </v>
   <v>       0.04660172       0.53724672      -0.10194293 </v>
   <v>       0.04988473       0.56879350       0.09628755 </v>
   <v>       0.12199444       0.47885769       0.24917626 </v>
   <v>       0.15109899       0.53192225       0.38143587 </v>
   <v>       0.14022996       0.50550436       0.49106007 </v>
   <v>       0.12270640       0.72815420      -0.08190056 </v>
   <v>       0.13722187       0.65947908       0.02921456 </v>
   <v>       0.06932922       0.71279918       0.15656975 </v>
   <v>       0.09527537       0.70548954       0.29551449 </v>
   <v>       0.08576503       0.76863287       0.47873549 </v>
   <v>       0.07826107       0.93473814      -0.06009777 </v>
   <v>       0.09304935       0.87859897       0.10611417 </v>
   <v>       0.11832865       0.89935867       0.22408635 </v>
   <v>       0.10339330       0.90505409       0.34798172 </v>
   <v>       0.11151831       0.87082084       0.46636385 </v>
   <v>       0.31066460       0.07905244      -0.07230707 </v>
   <v>       0.33948475       0.10267128       0.03196621 </v>
   <v>       0.31234696       0.12849781       0.20078284 </v>
   <v>       0.30802588       0.09770558       0.30732562 </v>
   <v>       0.30571396       0.05867581       0.47463107 </v>
   <v>       0.31491984       0.31491984      -0.10705973 </v>
   <v>       0.29334513       0.29334513      -0.00893770 </v>
   <v>       0.29218825       0.29218825       0.15456264 </v>
   <v>       0.31153384       0.31153384       0.36315731 </v>
   <v>       0.27776582       0.27776582       0.47863593 </v>
   <v>       0.35474907       0.50778941      -0.07528442 </v>
   <v>       0.28647206       0.47288707       0.06267394 </v>
   <v>       0.26549183       0.50761132       0.16295423 </v>
   <v>       0.29547632       0.51100013       0.26118550 </v>
   <v>       0.28539493       0.48537962       0.51375750 </v>
   <v>       0.27226268       0.74347529      -0.01045468 </v>
   <v>       0.31270516       0.68496703       0.09512559 </v>
   <v>       0.30752335       0.68754297       0.20535286 </v>
   <v>       0.29309222       0.67261088       0.33499614 </v>
   <v>       0.31771295       0.65629299       0.45098832 </v>
   <v>       0.28258049       0.88040159      -0.06599345 </v>
   <v>       0.27200445       0.90608093       0.05100239 </v>
   <v>       0.31684115       0.87865747       0.16933670 </v>
   <v>       0.33265503       0.88285986       0.33698199 </v>
   <v>       0.25364020       0.96946502       0.47850823 </v>
   <v>       0.53724672       0.04660172      -0.10194293 </v>
   <v>       0.56879350       0.04988473       0.09628755 </v>
   <v>       0.47885769       0.12199444       0.24917626 </v>
   <v>       0.53192225       0.15109899       0.38143587 </v>
   <v>       0.50550436       0.14022996       0.49106007 </v>
   <v>       0.50778941       0.35474907      -0.07528442 </v>
   <v>       0.47288707       0.28647206       0.06267394 </v>
   <v>       0.50761132       0.26549183       0.16295423 </v>
   <v>       0.51100013       0.29547632       0.26118550 </v>
   <v>       0.48537962       0.28539493       0.51375750 </v>
   <v>       0.50665498       0.50665498      -0.01158680 </v>
   <v>       0.50950854       0.50950854       0.10585760 </v>
   <v>       0.49163047       0.49163047       0.22557890 </v>
   <v>       0.49170130       0.49170130       0.34805670 </v>
   <v>       0.54812174       0.54812174       0.47777934 </v>
   <v>       0.47713292       0.67749888      -0.07166751 </v>
   <v>       0.48516826       0.71003446       0.05842060 </v>
   <v>       0.51028052       0.70229730       0.19614505 </v>
   <v>       0.50031482       0.69123151       0.29983853 </v>
   <v>       0.44209122       0.75969129       0.46931967 </v>
   <v>       0.56446277       0.83152777      -0.04594133 </v>
   <v>       0.41510403       0.96266313       0.09410091 </v>
   <v>       0.50934438       0.89713028       0.20926056 </v>
   <v>       0.47735741       0.91484425       0.36481319 </v>
   <v>       0.51972505       0.88199343       0.46943659 </v>
   <v>       0.72815420       0.12270640      -0.08190056 </v>
   <v>       0.65947908       0.13722187       0.02921456 </v>
   <v>       0.71279918       0.06932922       0.15656975 </v>
   <v>       0.70548954       0.09527537       0.29551449 </v>
   <v>       0.76863287       0.08576503       0.47873549 </v>
   <v>       0.74347529       0.27226268      -0.01045468 </v>
   <v>       0.68496703       0.31270516       0.09512559 </v>
   <v>       0.68754297       0.30752335       0.20535286 </v>
   <v>       0.67261088       0.29309222       0.33499614 </v>
   <v>       0.65629299       0.31771295       0.45098832 </v>
   <v>       0.67749888       0.47713292      -0.07166751 </v>
   <v>       0.71003446       0.48516826       0.05842060 </v>
   <v>       0.70229730       0.51028052       0.19614505 </v>
   <v>       0.69123151       0.50031482       0.29983853 </v>
   <v>       0.75969129       0.44209122       0.46931967 </v>
   <v>       0.70861166       0.70861166      -0.10491571 </v>
   <v>       0.68979582       0.68979582       0.06401466 </v>
   <v>       0.72161969       0.72161969       0.15411408 </v>
   <v>       0.71168439       0.71168439       0.31596959 </v>
   <v>       0.70405575       0.70405575       0.45935088 </v>
   <v>       0.69870913       0.91706771      -0.05412785 </v>
   <v>       0.72638804       0.86101072       0.05967186 </v>
   <v>       0.70372242       0.89841218       0.24024555 </v>
   <v>       0.67461186       0.91801206       0.35597732 </v>
   <v>       0.66650688       0.95374356       0.48418093 </v>
   <v>       0.93473814       0.07826107      -0.06009777 </v>
   <v>       0.87859897       0.09304935       0.10611417 </v>
   <v>       0.89935867       0.11832865       0.22408635 </v>
   <v>       0.90505409       0.10339330       0.34798172 </v>
   <v>       0.87082084       0.11151831       0.46636385 </v>
   <v>       0.88040159       0.28258049      -0.06599345 </v>
   <v>       0.90608093       0.27200445       0.05100239 </v>
   <v>       0.87865747       0.31684115       0.16933670 </v>
   <v>       0.88285986       0.33265503       0.33698199 </v>
   <v>       0.96946502       0.25364020       0.47850823 </v>
   <v>       0.83152777       0.56446277      -0.04594133 </v>
   <v>       0.96266313       0.41510403       0.09410091 </v>
   <v>       0.89713028       0.50934438       0.20926056 </v>
   <v>       0.91484425       0.47735741       0.36481319 </v>
   <v>       0.88199343       0.51972505       0.46943659 </v>
   <v>       0.91706771       0.69870913      -0.05412785 </v>
   <v>       0.86101072       0.72638804       0.05967186 </v>
   <v>       0.89841218       0.70372242       0.24024555 </v>
   <v>       0.91801206       0.67461186       0.35597732 </v>
   <v>       0.95374356       0.66650688       0.48418093 </v>
   <v>       0.89725409       0.89725409      -0.05257916 </v>
   <v>       0.90036289       0.90036289       0.03442749 </v>
   <v>       0.89885130       0.89885130       0.19882357 </v>
   <v>       0.90437977       0.90437977       0.32146889 </v>
   <v>       0.89534342       0.89534342       0.43614886 </v>
   <v>       0.36400297       0.36400297       0.53609214 </v>
  </varray>
 </structure>
</modeling>
