NiAl                                    
            1
    10.541500    0.000000    0.000000
     5.270750    9.129207    0.000000
     0.000000    0.000000   28.541500
   Ni   O 
   125   126
Direct configuration=     1
   0.00000000  0.00000000  0.00000000
   0.00000000  0.00000000  0.07386788
   0.00000000  0.00000000  0.14773576
   0.00000000  0.00000000  0.22160364
   0.00000000  0.00000000  0.29547151
   0.00000000  0.20000000  0.00000000
   0.00000000  0.20000000  0.07386788
   0.00000000  0.20000000  0.14773576
   0.00000000  0.20000000  0.22160364
   0.00000000  0.20000000  0.29547151
   0.00000000  0.40000001  0.00000000
   0.00000000  0.40000001  0.07386788
   0.00000000  0.40000001  0.14773576
   0.00000000  0.40000001  0.22160364
   0.00000000  0.40000001  0.29547151
   0.00000000  0.60000002  0.00000000
   0.00000000  0.60000002  0.07386788
   0.00000000  0.60000002  0.14773576
   0.00000000  0.60000002  0.22160364
   0.00000000  0.60000002  0.29547151
   0.00000000  0.80000001  0.00000000
   0.00000000  0.80000001  0.07386788
   0.00000000  0.80000001  0.14773576
   0.00000000  0.80000001  0.22160364
   0.00000000  0.80000001  0.29547151
   0.20000000  0.00000000  0.00000000
   0.20000000  0.00000000  0.07386788
   0.20000000  0.00000000  0.14773576
   0.20000000  0.00000000  0.22160364
   0.20000000  0.00000000  0.29547151
   0.20000000  0.20000000  0.00000000
   0.20000000  0.20000000  0.07386788
   0.20000000  0.20000000  0.14773576
   0.20000000  0.20000000  0.22160364
   0.20000000  0.20000000  0.29547151
   0.20000000  0.40000001  0.00000000
   0.20000000  0.40000001  0.07386788
   0.20000000  0.40000001  0.14773576
   0.20000000  0.40000001  0.22160364
   0.20000000  0.40000001  0.29547151
   0.20000000  0.60000002  0.00000000
   0.20000000  0.60000002  0.07386788
   0.20000000  0.60000002  0.14773576
   0.20000000  0.60000002  0.22160364
   0.20000000  0.60000002  0.29547151
   0.20000000  0.80000001  0.00000000
   0.20000000  0.80000001  0.07386788
   0.20000000  0.80000001  0.14773576
   0.20000000  0.80000001  0.22160364
   0.20000000  0.80000001  0.29547151
   0.40000001  0.00000000  0.00000000
   0.40000001  0.00000000  0.07386788
   0.40000001  0.00000000  0.14773576
   0.40000001  0.00000000  0.22160364
   0.40000001  0.00000000  0.29547151
   0.40000001  0.20000000  0.00000000
   0.40000001  0.20000000  0.07386788
   0.40000001  0.20000000  0.14773576
   0.40000001  0.20000000  0.22160364
   0.40000001  0.20000000  0.29547151
   0.40000001  0.40000001  0.00000000
   0.40000001  0.40000001  0.07386788
   0.40000001  0.40000001  0.14773576
   0.40000001  0.40000001  0.22160364
   0.40000001  0.40000001  0.29547151
   0.40000001  0.60000002  0.00000000
   0.40000001  0.60000002  0.07386788
   0.40000001  0.60000002  0.14773576
   0.40000001  0.60000002  0.22160364
   0.40000001  0.60000002  0.29547151
   0.40000001  0.80000001  0.00000000
   0.40000001  0.80000001  0.07386788
   0.40000001  0.80000001  0.14773576
   0.40000001  0.80000001  0.22160364
   0.40000001  0.80000001  0.29547151
   0.60000002  0.00000000  0.00000000
   0.60000002  0.00000000  0.07386788
   0.60000002  0.00000000  0.14773576
   0.60000002  0.00000000  0.22160364
   0.60000002  0.00000000  0.29547151
   0.60000002  0.20000000  0.00000000
   0.60000002  0.20000000  0.07386788
   0.60000002  0.20000000  0.14773576
   0.60000002  0.20000000  0.22160364
   0.60000002  0.20000000  0.29547151
   0.60000002  0.40000001  0.00000000
   0.60000002  0.40000001  0.07386788
   0.60000002  0.40000001  0.14773576
   0.60000002  0.40000001  0.22160364
   0.60000002  0.40000001  0.29547151
   0.60000002  0.60000002  0.00000000
   0.60000002  0.60000002  0.07386788
   0.60000002  0.60000002  0.14773576
   0.60000002  0.60000002  0.22160364
   0.60000002  0.60000002  0.29547151
   0.60000002  0.80000001  0.00000000
   0.60000002  0.80000001  0.07386788
   0.60000002  0.80000001  0.14773576
   0.60000002  0.80000001  0.22160364
   0.60000002  0.80000001  0.29547151
   0.80000001  0.00000000  0.00000000
   0.80000001  0.00000000  0.07386788
   0.80000001  0.00000000  0.14773576
   0.80000001  0.00000000  0.22160364
   0.80000001  0.00000000  0.29547151
   0.80000001  0.20000000  0.00000000
   0.80000001  0.20000000  0.07386788
   0.80000001  0.20000000  0.14773576
   0.80000001  0.20000000  0.22160364
   0.80000001  0.20000000  0.29547151
   0.80000001  0.40000001  0.00000000
   0.80000001  0.40000001  0.07386788
   0.80000001  0.40000001  0.14773576
   0.80000001  0.40000001  0.22160364
   0.80000001  0.40000001  0.29547151
   0.80000001  0.60000002  0.00000000
   0.80000001  0.60000002  0.07386788
   0.80000001  0.60000002  0.14773576
   0.80000001  0.60000002  0.22160364
   0.80000001  0.60000002  0.29547151
   0.80000001  0.80000001  0.00000000
   0.80000001  0.80000001  0.07386788
   0.80000001  0.80000001  0.14773576
   0.80000001  0.80000001  0.22160364
   0.80000001  0.80000001  0.29547151
   0.10000000  0.10000000  0.03693394
   0.10000000  0.10000000  0.11080182
   0.10000000  0.10000000  0.18466969
   0.10000000  0.10000000  0.25853757
   0.10000000  0.10000000  0.33240544
   0.10000000  0.30000001  0.03693394
   0.10000000  0.30000001  0.11080182
   0.10000000  0.30000001  0.18466969
   0.10000000  0.30000001  0.25853757
   0.10000000  0.30000001  0.33240544
   0.10000000  0.50000000  0.03693394
   0.10000000  0.50000000  0.11080182
   0.10000000  0.50000000  0.18466969
   0.10000000  0.50000000  0.25853757
   0.10000000  0.50000000  0.33240544
   0.10000000  0.69999999  0.03693394
   0.10000000  0.69999999  0.11080182
   0.10000000  0.69999999  0.18466969
   0.10000000  0.69999999  0.25853757
   0.10000000  0.69999999  0.33240544
   0.10000000  0.89999998  0.03693394
   0.10000000  0.89999998  0.11080182
   0.10000000  0.89999998  0.18466969
   0.10000000  0.89999998  0.25853757
   0.10000000  0.89999998  0.33240544
   0.30000001  0.10000000  0.03693394
   0.30000001  0.10000000  0.11080182
   0.30000001  0.10000000  0.18466969
   0.30000001  0.10000000  0.25853757
   0.30000001  0.10000000  0.33240544
   0.30000001  0.30000001  0.03693394
   0.30000001  0.30000001  0.11080182
   0.30000001  0.30000001  0.18466969
   0.30000001  0.30000001  0.25853757
   0.30000001  0.30000001  0.33240544
   0.30000001  0.50000000  0.03693394
   0.30000001  0.50000000  0.11080182
   0.30000001  0.50000000  0.18466969
   0.30000001  0.50000000  0.25853757
   0.30000001  0.50000000  0.33240544
   0.30000001  0.69999999  0.03693394
   0.30000001  0.69999999  0.11080182
   0.30000001  0.69999999  0.18466969
   0.30000001  0.69999999  0.25853757
   0.30000001  0.69999999  0.33240544
   0.30000001  0.89999998  0.03693394
   0.30000001  0.89999998  0.11080182
   0.30000001  0.89999998  0.18466969
   0.30000001  0.89999998  0.25853757
   0.30000001  0.89999998  0.33240544
   0.50000000  0.10000000  0.03693394
   0.50000000  0.10000000  0.11080182
   0.50000000  0.10000000  0.18466969
   0.50000000  0.10000000  0.25853757
   0.50000000  0.10000000  0.33240544
   0.50000000  0.30000001  0.03693394
   0.50000000  0.30000001  0.11080182
   0.50000000  0.30000001  0.18466969
   0.50000000  0.30000001  0.25853757
   0.50000000  0.30000001  0.33240544
   0.50000000  0.50000000  0.03693394
   0.50000000  0.50000000  0.11080182
   0.50000000  0.50000000  0.18466969
   0.50000000  0.50000000  0.25853757
   0.50000000  0.50000000  0.33240544
   0.50000000  0.69999999  0.03693394
   0.50000000  0.69999999  0.11080182
   0.50000000  0.69999999  0.18466969
   0.50000000  0.69999999  0.25853757
   0.50000000  0.69999999  0.33240544
   0.50000000  0.89999998  0.03693394
   0.50000000  0.89999998  0.11080182
   0.50000000  0.89999998  0.18466969
   0.50000000  0.89999998  0.25853757
   0.50000000  0.89999998  0.33240544
   0.69999999  0.10000000  0.03693394
   0.69999999  0.10000000  0.11080182
   0.69999999  0.10000000  0.18466969
   0.69999999  0.10000000  0.25853757
   0.69999999  0.10000000  0.33240544
   0.69999999  0.30000001  0.03693394
   0.69999999  0.30000001  0.11080182
   0.69999999  0.30000001  0.18466969
   0.69999999  0.30000001  0.25853757
   0.69999999  0.30000001  0.33240544
   0.69999999  0.50000000  0.03693394
   0.69999999  0.50000000  0.11080182
   0.69999999  0.50000000  0.18466969
   0.69999999  0.50000000  0.25853757
   0.69999999  0.50000000  0.33240544
   0.69999999  0.69999999  0.03693394
   0.69999999  0.69999999  0.11080182
   0.69999999  0.69999999  0.18466969
   0.69999999  0.69999999  0.25853757
   0.69999999  0.69999999  0.33240544
   0.69999999  0.89999998  0.03693394
   0.69999999  0.89999998  0.11080182
   0.69999999  0.89999998  0.18466969
   0.69999999  0.89999998  0.25853757
   0.69999999  0.89999998  0.33240544
   0.89999998  0.10000000  0.03693394
   0.89999998  0.10000000  0.11080182
   0.89999998  0.10000000  0.18466969
   0.89999998  0.10000000  0.25853757
   0.89999998  0.10000000  0.33240544
   0.89999998  0.30000001  0.03693394
   0.89999998  0.30000001  0.11080182
   0.89999998  0.30000001  0.18466969
   0.89999998  0.30000001  0.25853757
   0.89999998  0.30000001  0.33240544
   0.89999998  0.50000000  0.03693394
   0.89999998  0.50000000  0.11080182
   0.89999998  0.50000000  0.18466969
   0.89999998  0.50000000  0.25853757
   0.89999998  0.50000000  0.33240544
   0.89999998  0.69999999  0.03693394
   0.89999998  0.69999999  0.11080182
   0.89999998  0.69999999  0.18466969
   0.89999998  0.69999999  0.25853757
   0.89999998  0.69999999  0.33240544
   0.89999998  0.89999998  0.03693394
   0.89999998  0.89999998  0.11080182
   0.89999998  0.89999998  0.18466969
   0.89999998  0.89999998  0.25853757
   0.89999998  0.89999998  0.33240544
   0.42141986  0.42141986  0.36744214
Direct configuration=     2
   0.00056896  0.00056896 -0.01848903
   0.00020362  0.00020362  0.07275989
   0.00005779  0.00005779  0.14672380
   0.00006872  0.00006872  0.22033674
  -0.00029835 -0.00029835  0.30368059
  -0.00043119  0.19942090 -0.01891344
  -0.00006005  0.19943709  0.07294135
   0.00012335  0.20033143  0.14703801
  -0.00041776  0.20047599  0.22035313
  -0.00151622  0.20058156  0.30417941
   0.00055392  0.40003791 -0.01876427
   0.00080507  0.40000258  0.07320570
  -0.00008523  0.40041602  0.14719020
  -0.00023955  0.40048958  0.21999460
   0.00060679  0.40002522  0.30316932
   0.00067818  0.59903754 -0.01870124
   0.00060866  0.59911209  0.07292808
  -0.00038811  0.60013755  0.14729454
   0.00046751  0.59967098  0.22012327
   0.00038477  0.60052723  0.30357020
   0.00048925  0.80005253 -0.01902462
   0.00051727  0.80013673  0.07293016
  -0.00012952  0.79984589  0.14727148
   0.00055322  0.79923618  0.22088595
   0.00066376  0.79942602  0.30201333
   0.19942090 -0.00043119 -0.01891344
   0.19943709 -0.00006005  0.07294135
   0.20033143  0.00012335  0.14703801
   0.20047599 -0.00041776  0.22035313
   0.20058156 -0.00151622  0.30417941
   0.20043186  0.20043186 -0.01881429
   0.20053342  0.20053342  0.07327142
   0.20020903  0.20020903  0.14688261
   0.20017694  0.20017694  0.22026091
   0.20052630  0.20052630  0.30280848
   0.20098012  0.39947741 -0.01871061
   0.20112925  0.39889214  0.07302652
   0.20026702  0.39951126  0.14691712
   0.20017776  0.40005222  0.22029397
   0.20094672  0.40014378  0.30361499
   0.20077024  0.59929434 -0.01856672
   0.20053174  0.59927833  0.07255812
   0.20001106  0.59959391  0.14719282
   0.20031325  0.59972655  0.22105166
   0.20081286  0.60153265  0.30125199
   0.19986668  0.80056943 -0.01853540
   0.19931821  0.80079223  0.07263814
   0.19973022  0.80032281  0.14693679
   0.20050946  0.79949814  0.22078427
   0.20085978  0.79872049  0.30276519
   0.40003791  0.00055392 -0.01876427
   0.40000258  0.00080507  0.07320570
   0.40041602 -0.00008523  0.14719020
   0.40048958 -0.00023955  0.21999460
   0.40002522  0.00060679  0.30316932
   0.39947741  0.20098012 -0.01871061
   0.39889214  0.20112925  0.07302652
   0.39951126  0.20026702  0.14691712
   0.40005222  0.20017776  0.22029397
   0.40014378  0.20094672  0.30361499
   0.39971367  0.39971367 -0.01840851
   0.39956787  0.39956787  0.07255559
   0.39981841  0.39981841  0.14694247
   0.39997691  0.39997691  0.22073251
   0.39950029  0.39950029  0.29936047
   0.39937276  0.59984394 -0.01845764
   0.39955013  0.59969550  0.07253645
   0.40009900  0.59981835  0.14706536
   0.40016995  0.59992508  0.22093538
   0.39919457  0.59972772  0.30297348
   0.39953735  0.79979544 -0.01880216
   0.39990375  0.79977137  0.07287863
   0.40061913  0.79979961  0.14728936
   0.40056737  0.79912477  0.22056491
   0.39914040  0.79844578  0.30297808
   0.59903754  0.00067818 -0.01870124
   0.59911209  0.00060866  0.07292808
   0.60013755 -0.00038811  0.14729454
   0.59967098  0.00046751  0.22012327
   0.60052723  0.00038477  0.30357020
   0.59929434  0.20077024 -0.01856672
   0.59927833  0.20053174  0.07255812
   0.59959391  0.20001106  0.14719282
   0.59972655  0.20031325  0.22105166
   0.60153265  0.20081286  0.30125199
   0.59984394  0.39937276 -0.01845764
   0.59969550  0.39955013  0.07253645
   0.59981835  0.40009900  0.14706536
   0.59992508  0.40016995  0.22093538
   0.59972772  0.39919457  0.30297348
   0.59979819  0.59979819 -0.01877521
   0.59998004  0.59998004  0.07293607
   0.60018096  0.60018096  0.14736133
   0.59968856  0.59968856  0.22033960
   0.59889934  0.59889934  0.30305228
   0.60034006  0.79990792 -0.01873070
   0.60049077  0.80013953  0.07310038
   0.60045404  0.79974135  0.14728401
   0.59987541  0.80019270  0.21981115
   0.59959888  0.79986001  0.30348458
   0.80005253  0.00048925 -0.01902462
   0.80013673  0.00051727  0.07293016
   0.79984589 -0.00012952  0.14727148
   0.79923618  0.00055322  0.22088595
   0.79942602  0.00066376  0.30201333
   0.80056943  0.19986668 -0.01853540
   0.80079223  0.19931821  0.07263814
   0.80032281  0.19973022  0.14693679
   0.79949814  0.20050946  0.22078427
   0.79872049  0.20085978  0.30276519
   0.79979544  0.39953735 -0.01880216
   0.79977137  0.39990375  0.07287863
   0.79979961  0.40061913  0.14728936
   0.79912477  0.40056737  0.22056491
   0.79844578  0.39914040  0.30297808
   0.79990792  0.60034006 -0.01873070
   0.80013953  0.60049077  0.07310038
   0.79974135  0.60045404  0.14728401
   0.80019270  0.59987541  0.21981115
   0.79986001  0.59959888  0.30348458
   0.79964964  0.79964964 -0.01880290
   0.79966391  0.79966391  0.07296378
   0.79983449  0.79983449  0.14724503
   0.79990871  0.79990871  0.21998890
   0.80034119  0.80034119  0.30448426
   0.09873502  0.09873502  0.03598672
   0.09962233  0.09962233  0.11102192
   0.10005249  0.10005249  0.18362779
   0.09993358  0.09993358  0.25798919
   0.09996133  0.09996133  0.34838026
   0.09948327  0.30028190  0.03577953
   0.10033613  0.29981048  0.11113085
   0.09990784  0.30012670  0.18374611
   0.09989338  0.29994695  0.25751839
   0.10008567  0.29921107  0.34937059
   0.09936972  0.50197874  0.03587963
   0.10033148  0.49999502  0.11090028
   0.10010148  0.49984965  0.18391888
   0.10073257  0.50010702  0.25815720
   0.10006907  0.49962186  0.34799355
   0.09965464  0.70126726  0.03537858
   0.10029678  0.70005658  0.11127508
   0.10025418  0.69968022  0.18333556
   0.10063566  0.69912017  0.25816738
   0.10068892  0.69898166  0.34930296
   0.09920560  0.90018511  0.03628764
   0.09974646  0.90009867  0.11020467
   0.10050154  0.89983933  0.18367763
   0.10138663  0.89962473  0.25832982
   0.10234406  0.90044241  0.34859333
   0.30028190  0.09948327  0.03577953
   0.29981048  0.10033613  0.11113085
   0.30012670  0.09990784  0.18374611
   0.29994695  0.09989338  0.25751839
   0.29921107  0.10008567  0.34937059
   0.30075368  0.30075368  0.03627678
   0.30019483  0.30019483  0.11080459
   0.30014474  0.30014474  0.18397819
   0.30068204  0.30068204  0.25802135
   0.29926552  0.29926552  0.34775400
   0.30056084  0.50033371  0.03579076
   0.30040445  0.49969993  0.11114945
   0.30062050  0.49962121  0.18379693
   0.30103106  0.49949016  0.25899387
   0.29756742  0.49720477  0.34889919
   0.29927017  0.70051810  0.03618154
   0.29971140  0.70025357  0.11060704
   0.30107390  0.69924043  0.18391737
   0.30108023  0.69877007  0.25834339
   0.30045741  0.70139209  0.34806296
   0.29940518  0.89867997  0.03569380
   0.29963655  0.89976980  0.11119116
   0.30056313  0.89951379  0.18378726
   0.29998331  0.89921694  0.25791621
   0.29962081  0.89985412  0.34843601
   0.50197874  0.09936972  0.03587963
   0.49999502  0.10033148  0.11090028
   0.49984965  0.10010148  0.18391888
   0.50010702  0.10073257  0.25815720
   0.49962186  0.10006907  0.34799355
   0.50033371  0.30056084  0.03579076
   0.49969993  0.30040445  0.11114945
   0.49962121  0.30062050  0.18379693
   0.49949016  0.30103106  0.25899387
   0.49720477  0.29756742  0.34889919
   0.49988689  0.49988689  0.03602688
   0.49996811  0.49996811  0.11083562
   0.50002224  0.50002224  0.18414984
   0.49931134  0.49931134  0.25826329
   0.50438701  0.50438701  0.34675028
   0.49990819  0.69974482  0.03540961
   0.49995795  0.69995540  0.11134019
   0.50024397  0.69957859  0.18400470
   0.49894099  0.69980044  0.25736352
   0.49838145  0.70064848  0.34881101
   0.50136722  0.89870825  0.03567157
   0.50036397  0.89958255  0.11100478
   0.49982453  0.89990599  0.18382808
   0.49997269  0.90023176  0.25742908
   0.49979357  0.90048031  0.34927080
   0.70126726  0.09965464  0.03537858
   0.70005658  0.10029678  0.11127508
   0.69968022  0.10025418  0.18333556
   0.69912017  0.10063566  0.25816738
   0.69898166  0.10068892  0.34930296
   0.70051810  0.29927017  0.03618154
   0.70025357  0.29971140  0.11060704
   0.69924043  0.30107390  0.18391737
   0.69877007  0.30108023  0.25834339
   0.70139209  0.30045741  0.34806296
   0.69974482  0.49990819  0.03540961
   0.69995540  0.49995795  0.11134019
   0.69957859  0.50024397  0.18400470
   0.69980044  0.49894099  0.25736352
   0.70064848  0.49838145  0.34881101
   0.70039036  0.70039036  0.03572177
   0.70002097  0.70002097  0.11090188
   0.69973102  0.69973102  0.18390554
   0.70033253  0.70033253  0.25724570
   0.70054471  0.70054471  0.34914778
   0.70101795  0.89913480  0.03553320
   0.70006499  0.89994694  0.11099142
   0.69942300  0.90016454  0.18376304
   0.69968639  0.90019562  0.25823168
   0.69971615  0.89963353  0.34805456
   0.90018511  0.09920560  0.03628764
   0.90009867  0.09974646  0.11020467
   0.89983933  0.10050154  0.18367763
   0.89962473  0.10138663  0.25832982
   0.90044241  0.10234406  0.34859333
   0.89867997  0.29940518  0.03569380
   0.89976980  0.29963655  0.11119116
   0.89951379  0.30056313  0.18378726
   0.89921694  0.29998331  0.25791621
   0.89985412  0.29962081  0.34843601
   0.89870825  0.50136722  0.03567157
   0.89958255  0.50036397  0.11100478
   0.89990599  0.49982453  0.18382808
   0.90023176  0.49997269  0.25742908
   0.90048031  0.49979357  0.34927080
   0.89913480  0.70101795  0.03553320
   0.89994694  0.70006499  0.11099142
   0.90016454  0.69942300  0.18376304
   0.90019562  0.69968639  0.25823168
   0.89963353  0.69971615  0.34805456
   0.90051712  0.90051712  0.03508036
   0.90030333  0.90030333  0.11128512
   0.89996594  0.89996594  0.18301219
   0.89979744  0.89979744  0.25832744
   0.89973180  0.89973180  0.34952140
   0.42207511  0.42207511  0.37223623
Direct configuration=     3
   0.00066558  0.00066558 -0.02162907
   0.00023820  0.00023820  0.07257172
   0.00006761  0.00006761  0.14655193
   0.00008039  0.00008039  0.22012158
  -0.00034902 -0.00034902  0.30507477
  -0.00050442  0.19932255 -0.02212557
  -0.00007025  0.19934149  0.07278400
   0.00014430  0.20038772  0.14691951
  -0.00048871  0.20055683  0.22014075
  -0.00177372  0.20068033  0.30565830
   0.00064800  0.40004434 -0.02195106
   0.00094180  0.40000302  0.07309324
  -0.00009970  0.40048667  0.14709754
  -0.00028023  0.40057272  0.21972133
   0.00070985  0.40002950  0.30447666
   0.00079336  0.59887407 -0.02187733
   0.00071203  0.59896129  0.07276847
  -0.00045402  0.60016091  0.14721961
   0.00054691  0.59961510  0.21987185
   0.00045011  0.60061676  0.30494563
   0.00057234  0.80006145 -0.02225563
   0.00060511  0.80015995  0.07277090
  -0.00015152  0.79981972  0.14719263
   0.00064717  0.79910645  0.22076406
   0.00077649  0.79932854  0.30312434
   0.19932255 -0.00050442 -0.02212557
   0.19934149 -0.00007025  0.07278400
   0.20038772  0.00014430  0.14691951
   0.20055683 -0.00048871  0.22014075
   0.20068033 -0.00177372  0.30565830
   0.20050520  0.20050520 -0.02200957
   0.20062401  0.20062401  0.07317012
   0.20024453  0.20024453  0.14673771
   0.20020699  0.20020699  0.22003287
   0.20061569  0.20061569  0.30405453
   0.20114658  0.39938865 -0.02188828
   0.20132103  0.39870398  0.07288363
   0.20031237  0.39942825  0.14677809
   0.20020794  0.40006108  0.22007154
   0.20110750  0.40016819  0.30499802
   0.20090105  0.59917449 -0.02171996
   0.20062204  0.59915576  0.07233568
   0.20001294  0.59952494  0.14710061
   0.20036645  0.59968011  0.22095792
   0.20095091  0.60179294  0.30223371
   0.19984403  0.80066614 -0.02168332
   0.19920242  0.80092678  0.07242929
   0.19968440  0.80037763  0.14680110
   0.20059599  0.79941290  0.22064512
   0.20100580  0.79850318  0.30400390
   0.40004434  0.00064800 -0.02195106
   0.40000302  0.00094180  0.07309324
   0.40048667 -0.00009970  0.14709754
   0.40057272 -0.00028023  0.21972133
   0.40002950  0.00070985  0.30447666
   0.39938865  0.20114658 -0.02188828
   0.39870398  0.20132103  0.07288363
   0.39942825  0.20031237  0.14677809
   0.40006108  0.20020794  0.22007154
   0.40016819  0.20110750  0.30499802
   0.39966505  0.39966505 -0.02153488
   0.39949447  0.39949447  0.07233272
   0.39978757  0.39978757  0.14680774
   0.39997299  0.39997299  0.22058456
   0.39941543  0.39941543  0.30002095
   0.39926624  0.59981743 -0.02159236
   0.39947373  0.59964378  0.07231033
   0.40011582  0.59978750  0.14695151
   0.40019881  0.59991235  0.22082189
   0.39905778  0.59968147  0.30424756
   0.39945878  0.79976070 -0.02199539
   0.39988740  0.79973254  0.07271063
   0.40072428  0.79976557  0.14721355
   0.40066373  0.79897612  0.22038849
   0.39899441  0.79818183  0.30425294
   0.59887407  0.00079336 -0.02187733
   0.59896129  0.00071203  0.07276847
   0.60016091 -0.00045402  0.14721961
   0.59961510  0.00054691  0.21987185
   0.60061676  0.00045011  0.30494563
   0.59917449  0.20090105 -0.02171996
   0.59915576  0.20062204  0.07233568
   0.59952494  0.20001294  0.14710061
   0.59968011  0.20036645  0.22095792
   0.60179294  0.20095091  0.30223371
   0.59981743  0.39926624 -0.02159236
   0.59964378  0.39947373  0.07231033
   0.59978750  0.40011582  0.14695151
   0.59991235  0.40019881  0.22082189
   0.59968147  0.39905778  0.30424756
   0.59976391  0.59976391 -0.02196385
   0.59997664  0.59997664  0.07277781
   0.60021169  0.60021169  0.14729774
   0.59963567  0.59963567  0.22012493
   0.59871241  0.59871241  0.30433974
   0.60039780  0.79989228 -0.02191179
   0.60057411  0.80016322  0.07297004
   0.60053115  0.79969742  0.14720729
   0.59985425  0.80022543  0.21950672
   0.59953075  0.79983623  0.30484546
   0.80006145  0.00057234 -0.02225563
   0.80015995  0.00060511  0.07277090
   0.79981972 -0.00015152  0.14719263
   0.79910645  0.00064717  0.22076406
   0.79932854  0.00077649  0.30312434
   0.80066614  0.19984403 -0.02168332
   0.80092678  0.19920242  0.07242929
   0.80037763  0.19968440  0.14680110
   0.79941290  0.20059599  0.22064512
   0.79850318  0.20100580  0.30400390
   0.79976070  0.39945878 -0.02199539
   0.79973254  0.39988740  0.07271063
   0.79976557  0.40072428  0.14721355
   0.79897612  0.40066373  0.22038849
   0.79818183  0.39899441  0.30425294
   0.79989228  0.60039780 -0.02191179
   0.80016322  0.60057411  0.07297004
   0.79969742  0.60053115  0.14720729
   0.80022543  0.59985425  0.21950672
   0.79983623  0.59953075  0.30484546
   0.79959014  0.79959014 -0.02199625
   0.79960683  0.79960683  0.07281024
   0.79980638  0.79980638  0.14716169
   0.79989320  0.79989320  0.21971466
   0.80039914  0.80039914  0.30601492
   0.09852018  0.09852018  0.03582585
   0.09955819  0.09955819  0.11105930
   0.10006140  0.10006140  0.18345084
   0.09992231  0.09992231  0.25789606
   0.09995477  0.09995477  0.35109331
   0.09939552  0.30032978  0.03558348
   0.10039321  0.29977830  0.11118673
   0.09989218  0.30014821  0.18358926
   0.09987527  0.29993794  0.25734530
   0.10010022  0.29907708  0.35225183
   0.09926268  0.50231480  0.03570058
   0.10038777  0.49999417  0.11091700
   0.10011872  0.49982411  0.18379137
   0.10085698  0.50012519  0.25809260
   0.10008081  0.49955764  0.35064092
   0.09959599  0.70148248  0.03511443
   0.10034719  0.70006619  0.11135546
   0.10029735  0.69962591  0.18310898
   0.10074361  0.69897074  0.25810452
   0.10080592  0.69880871  0.35217272
   0.09907069  0.90021655  0.03617788
   0.09970340  0.90011543  0.11010325
   0.10058671  0.89981205  0.18350915
   0.10162213  0.89956101  0.25829454
   0.10274216  0.90051755  0.35134256
   0.30032978  0.09939552  0.03558348
   0.29977830  0.10039321  0.11118673
   0.30014821  0.09989218  0.18358926
   0.29993794  0.09987527  0.25734530
   0.29907708  0.10010022  0.35225183
   0.30088168  0.30088168  0.03616517
   0.30022792  0.30022792  0.11080506
   0.30016932  0.30016932  0.18386075
   0.30079787  0.30079787  0.25793368
   0.29914078  0.29914078  0.35036069
   0.30065608  0.50039038  0.03559661
   0.30047313  0.49964897  0.11120848
   0.30072588  0.49955688  0.18364871
   0.30120617  0.49940358  0.25907137
   0.29715428  0.49673005  0.35170037
   0.29914622  0.70060609  0.03605376
   0.29966238  0.70029664  0.11057396
   0.30125628  0.69911144  0.18378960
   0.30126368  0.69856119  0.25831041
   0.30053509  0.70162852  0.35072212
   0.29930416  0.89845579  0.03548319
   0.29957482  0.89973071  0.11125728
   0.30065876  0.89943122  0.18363740
   0.29998047  0.89908395  0.25781068
   0.29955641  0.89982935  0.35115853
   0.50231480  0.09926268  0.03570058
   0.49999417  0.10038777  0.11091700
   0.49982411  0.10011872  0.18379137
   0.50012519  0.10085698  0.25809260
   0.49955764  0.10008081  0.35064092
   0.50039038  0.30065608  0.03559661
   0.49964897  0.30047313  0.11120848
   0.49955688  0.30072588  0.18364871
   0.49940358  0.30120617  0.25907137
   0.49673005  0.29715428  0.35170037
   0.49986768  0.49986768  0.03587284
   0.49996269  0.49996269  0.11084136
   0.50002601  0.50002601  0.18406155
   0.49919438  0.49919438  0.25821671
   0.50513206  0.50513206  0.34918651
   0.49989260  0.69970149  0.03515073
   0.49995081  0.69994782  0.11143162
   0.50028541  0.69950702  0.18389177
   0.49876114  0.69976655  0.25716413
   0.49810656  0.70075862  0.35159722
   0.50159942  0.89848887  0.03545717
   0.50042578  0.89951166  0.11103925
   0.49979473  0.89989002  0.18368515
   0.49996805  0.90027112  0.25724082
   0.49975851  0.90056189  0.35213510
   0.70148248  0.09959599  0.03511443
   0.70006619  0.10034719  0.11135546
   0.69962591  0.10029735  0.18310898
   0.69897074  0.10074361  0.25810452
   0.69880871  0.10080592  0.35217272
   0.70060609  0.29914622  0.03605376
   0.70029664  0.29966238  0.11057396
   0.69911144  0.30125628  0.18378960
   0.69856119  0.30126368  0.25831041
   0.70162852  0.30053509  0.35072212
   0.69970149  0.49989260  0.03515073
   0.69994782  0.49995081  0.11143162
   0.69950702  0.50028541  0.18389177
   0.69976655  0.49876114  0.25716413
   0.70075862  0.49810656  0.35159722
   0.70045665  0.70045665  0.03551590
   0.70002454  0.70002454  0.11091887
   0.69968534  0.69968534  0.18377576
   0.70038901  0.70038901  0.25702630
   0.70063723  0.70063723  0.35199118
   0.70119084  0.89898786  0.03529531
   0.70007603  0.89993794  0.11102362
   0.69932501  0.90019249  0.18360906
   0.69963313  0.90022884  0.25817973
   0.69966794  0.89957129  0.35071229
   0.90021655  0.09907069  0.03617788
   0.90011543  0.09970340  0.11010325
   0.89981205  0.10058671  0.18350915
   0.89956101  0.10162213  0.25829454
   0.90051755  0.10274216  0.35134256
   0.89845579  0.29930416  0.03548319
   0.89973071  0.29957482  0.11125728
   0.89943122  0.30065876  0.18363740
   0.89908395  0.29998047  0.25781068
   0.89982935  0.29955641  0.35115853
   0.89848887  0.50159942  0.03545717
   0.89951166  0.50042578  0.11103925
   0.89989002  0.49979473  0.18368515
   0.90027112  0.49996805  0.25724082
   0.90056189  0.49975851  0.35213510
   0.89898786  0.70119084  0.03529531
   0.89993794  0.70007603  0.11102362
   0.90019249  0.69932501  0.18360906
   0.90022884  0.69963313  0.25817973
   0.89957129  0.69966794  0.35071229
   0.90060495  0.90060495  0.03476557
   0.90035485  0.90035485  0.11136720
   0.89996016  0.89996016  0.18273069
   0.89976305  0.89976305  0.25829175
   0.89968625  0.89968625  0.35242826
   0.42218640  0.42218640  0.37305042
Direct configuration=     4
   0.00085884  0.00085884 -0.02790916
   0.00030736  0.00030736  0.07219537
   0.00008723  0.00008723  0.14620820
   0.00010373  0.00010373  0.21969126
  -0.00045036 -0.00045036  0.30786311
  -0.00065089  0.19912585 -0.02854981
  -0.00009064  0.19915028  0.07246929
   0.00018620  0.20050030  0.14668251
  -0.00063061  0.20071851  0.21971599
  -0.00228873  0.20087786  0.30861608
   0.00083614  0.40005722 -0.02832464
   0.00121526  0.40000390  0.07286833
  -0.00012865  0.40062797  0.14691224
  -0.00036159  0.40073901  0.21917480
   0.00091596  0.40003807  0.30709134
   0.00102371  0.59854715 -0.02822950
   0.00091878  0.59865969  0.07244926
  -0.00058585  0.60020762  0.14706974
   0.00070571  0.59950334  0.21936902
   0.00058080  0.60079584  0.30769647
   0.00073852  0.80007929 -0.02871764
   0.00078081  0.80020639  0.07245239
  -0.00019552  0.79976737  0.14703493
   0.00083508  0.79884700  0.22052028
   0.00100195  0.79913357  0.30534637
   0.19912585 -0.00065089 -0.02854981
   0.19915028 -0.00009064  0.07246929
   0.20050030  0.00018620  0.14668251