 253 253   0   0
  0.3031145E+02  0.1718057E-08  0.1718057E-08  0.3000000E-08  0.2000000E-15
   1.0000000000000000E-004
  CAR 
 NiAl                                    
      5.16850450    -19.46873280  301      1.83890850      1.00000000
    -19.469  0.0000E+00  0.0000E+00
    -19.387  0.0000E+00  0.0000E+00
    -19.304  0.0000E+00  0.0000E+00
    -19.222  0.0000E+00  0.0000E+00
    -19.140  0.0000E+00  0.0000E+00
    -19.058  0.0000E+00  0.0000E+00
    -18.976  0.0000E+00  0.0000E+00
    -18.894  0.0000E+00  0.0000E+00
    -18.812  0.0000E+00  0.0000E+00
    -18.730  0.0000E+00  0.0000E+00
    -18.647  0.0000E+00  0.0000E+00
    -18.565  0.2717E-09  0.2232E-10
    -18.483  0.4322E-04  0.3549E-05
    -18.401  0.4208E-01  0.3459E-02
    -18.319  0.4448E+00  0.3999E-01
    -18.237  0.1214E+00  0.4996E-01
    -18.155  0.4741E-03  0.5000E-01
    -18.073  0.1248E-07  0.5000E-01
    -17.990  0.1741E-14  0.5000E-01
    -17.908  0.0000E+00  0.5000E-01
    -17.826  0.0000E+00  0.5000E-01
    -17.744  0.0000E+00  0.5000E-01
    -17.662  0.0000E+00  0.5000E-01
    -17.580  0.0000E+00  0.5000E-01
    -17.498  0.0000E+00  0.5000E-01
    -17.416  0.0000E+00  0.5000E-01
    -17.334  0.0000E+00  0.5000E-01
    -17.251  0.0000E+00  0.5000E-01
    -17.169  0.0000E+00  0.5000E-01
    -17.087  0.0000E+00  0.5000E-01
    -17.005  0.0000E+00  0.5000E-01
    -16.923  0.0000E+00  0.5000E-01
    -16.841  0.0000E+00  0.5000E-01
    -16.759  0.0000E+00  0.5000E-01
    -16.677  0.0000E+00  0.5000E-01
    -16.594  0.0000E+00  0.5000E-01
    -16.512  0.0000E+00  0.5000E-01
    -16.430  0.0000E+00  0.5000E-01
    -16.348  0.0000E+00  0.5000E-01
    -16.266  0.0000E+00  0.5000E-01
    -16.184  0.0000E+00  0.5000E-01
    -16.102  0.0000E+00  0.5000E-01
    -16.020  0.0000E+00  0.5000E-01
    -15.937  0.0000E+00  0.5000E-01
    -15.855  0.0000E+00  0.5000E-01
    -15.773  0.0000E+00  0.5000E-01
    -15.691  0.0000E+00  0.5000E-01
    -15.609  0.0000E+00  0.5000E-01
    -15.527  0.0000E+00  0.5000E-01
    -15.445  0.0000E+00  0.5000E-01
    -15.363  0.0000E+00  0.5000E-01
    -15.280  0.0000E+00  0.5000E-01
    -15.198  0.0000E+00  0.5000E-01
    -15.116  0.0000E+00  0.5000E-01
    -15.034  0.0000E+00  0.5000E-01
    -14.952  0.0000E+00  0.5000E-01
    -14.870  0.0000E+00  0.5000E-01
    -14.788  0.0000E+00  0.5000E-01
    -14.706  0.0000E+00  0.5000E-01
    -14.623  0.0000E+00  0.5000E-01
    -14.541  0.0000E+00  0.5000E-01
    -14.459  0.0000E+00  0.5000E-01
    -14.377  0.0000E+00  0.5000E-01
    -14.295  0.0000E+00  0.5000E-01
    -14.213  0.0000E+00  0.5000E-01
    -14.131  0.0000E+00  0.5000E-01
    -14.049  0.0000E+00  0.5000E-01
    -13.966  0.0000E+00  0.5000E-01
    -13.884  0.0000E+00  0.5000E-01
    -13.802  0.0000E+00  0.5000E-01
    -13.720  0.0000E+00  0.5000E-01
    -13.638  0.0000E+00  0.5000E-01
    -13.556  0.0000E+00  0.5000E-01
    -13.474  0.0000E+00  0.5000E-01
    -13.392  0.0000E+00  0.5000E-01
    -13.309  0.0000E+00  0.5000E-01
    -13.227  0.0000E+00  0.5000E-01
    -13.145  0.0000E+00  0.5000E-01
    -13.063  0.0000E+00  0.5000E-01
    -12.981  0.0000E+00  0.5000E-01
    -12.899  0.0000E+00  0.5000E-01
    -12.817  0.0000E+00  0.5000E-01
    -12.735  0.0000E+00  0.5000E-01
    -12.652  0.0000E+00  0.5000E-01
    -12.570  0.0000E+00  0.5000E-01
    -12.488  0.0000E+00  0.5000E-01
    -12.406  0.0000E+00  0.5000E-01
    -12.324  0.0000E+00  0.5000E-01
    -12.242  0.0000E+00  0.5000E-01
    -12.160  0.0000E+00  0.5000E-01
    -12.078  0.0000E+00  0.5000E-01
    -11.995  0.0000E+00  0.5000E-01
    -11.913  0.0000E+00  0.5000E-01
    -11.831  0.0000E+00  0.5000E-01
    -11.749  0.0000E+00  0.5000E-01
    -11.667  0.0000E+00  0.5000E-01
    -11.585  0.0000E+00  0.5000E-01
    -11.503  0.0000E+00  0.5000E-01
    -11.421  0.0000E+00  0.5000E-01
    -11.338  0.0000E+00  0.5000E-01
    -11.256  0.0000E+00  0.5000E-01
    -11.174  0.0000E+00  0.5000E-01
    -11.092  0.0000E+00  0.5000E-01
    -11.010  0.0000E+00  0.5000E-01
    -10.928  0.0000E+00  0.5000E-01
    -10.846  0.0000E+00  0.5000E-01
    -10.764  0.0000E+00  0.5000E-01
    -10.681  0.0000E+00  0.5000E-01
    -10.599  0.0000E+00  0.5000E-01
    -10.517  0.0000E+00  0.5000E-01
    -10.435  0.0000E+00  0.5000E-01
    -10.353  0.0000E+00  0.5000E-01
    -10.271  0.0000E+00  0.5000E-01
    -10.189  0.0000E+00  0.5000E-01
    -10.107  0.0000E+00  0.5000E-01
    -10.024  0.0000E+00  0.5000E-01
     -9.942  0.0000E+00  0.5000E-01
     -9.860  0.0000E+00  0.5000E-01
     -9.778  0.0000E+00  0.5000E-01
     -9.696  0.0000E+00  0.5000E-01
     -9.614  0.0000E+00  0.5000E-01
     -9.532  0.2205E-14  0.5000E-01
     -9.450  0.9831E-08  0.5000E-01
     -9.367  0.2363E-03  0.5002E-01
     -9.285  0.3978E-01  0.5329E-01
     -9.203  0.1064E+00  0.6202E-01
     -9.121  0.2253E+00  0.8053E-01
     -9.039  0.6454E+00  0.1335E+00
     -8.957  0.4928E-01  0.1376E+00
     -8.875  0.6657E-01  0.1430E+00
     -8.793  0.2736E+00  0.1655E+00
     -8.710  0.1045E+01  0.2513E+00
     -8.628  0.7485E+00  0.3128E+00
     -8.546  0.6883E+00  0.3693E+00
     -8.464  0.7315E-01  0.3753E+00
     -8.382  0.3481E+00  0.4039E+00
     -8.300  0.5456E+00  0.4487E+00
     -8.218  0.3970E+00  0.4813E+00
     -8.136  0.9348E+00  0.5581E+00
     -8.053  0.1616E+01  0.6908E+00
     -7.971  0.8174E+00  0.7580E+00
     -7.889  0.5552E-01  0.7625E+00
     -7.807  0.1377E+00  0.7738E+00
     -7.725  0.1531E+01  0.8996E+00
     -7.643  0.1856E+01  0.1052E+01
     -7.561  0.3502E+00  0.1081E+01
     -7.479  0.6239E+00  0.1132E+01
     -7.396  0.3827E+00  0.1163E+01
     -7.314  0.7991E+00  0.1229E+01
     -7.232  0.8079E+00  0.1295E+01
     -7.150  0.9817E+00  0.1376E+01
     -7.068  0.2043E+01  0.1544E+01
     -6.986  0.1470E+01  0.1665E+01
     -6.904  0.5083E+00  0.1706E+01
     -6.822  0.1200E+01  0.1805E+01
     -6.739  0.1199E+01  0.1903E+01
     -6.657  0.2465E+01  0.2106E+01
     -6.575  0.1030E+01  0.2190E+01
     -6.493  0.1180E+00  0.2200E+01
     -6.411  0.2744E-03  0.2200E+01
     -6.329  0.3012E-01  0.2202E+01
     -6.247  0.1048E+01  0.2288E+01
     -6.165  0.2674E+01  0.2508E+01
     -6.083  0.2950E+01  0.2750E+01
     -6.000  0.1551E+01  0.2878E+01
     -5.918  0.3159E+00  0.2904E+01
     -5.836  0.1014E+01  0.2987E+01
     -5.754  0.2873E+01  0.3223E+01
     -5.672  0.1668E+01  0.3360E+01
     -5.590  0.8140E+00  0.3427E+01
     -5.508  0.8421E+00  0.3496E+01
     -5.426  0.1345E+01  0.3606E+01
     -5.343  0.1533E+01  0.3732E+01
     -5.261  0.7580E+00  0.3794E+01
     -5.179  0.1404E+01  0.3910E+01
     -5.097  0.2583E+01  0.4122E+01
     -5.015  0.1564E+01  0.4250E+01
     -4.933  0.6107E+00  0.4300E+01
     -4.851  0.8713E+00  0.4372E+01
     -4.769  0.2642E+01  0.4589E+01
     -4.686  0.2754E+01  0.4815E+01
     -4.604  0.1940E+01  0.4974E+01
     -4.522  0.6171E+00  0.5025E+01
     -4.440  0.8667E+00  0.5096E+01
     -4.358  0.1128E+01  0.5189E+01
     -4.276  0.2409E+01  0.5387E+01
     -4.194  0.3013E+01  0.5634E+01
     -4.112  0.3138E+01  0.5892E+01
     -4.029  0.1175E+01  0.5988E+01
     -3.947  0.5155E+00  0.6031E+01
     -3.865  0.1326E+01  0.6140E+01
     -3.783  0.2779E+01  0.6368E+01
     -3.701  0.1853E+01  0.6520E+01
     -3.619  0.1896E+01  0.6676E+01
     -3.537  0.6657E+00  0.6730E+01
     -3.455  0.8596E+00  0.6801E+01
     -3.372  0.9791E+00  0.6881E+01
     -3.290  0.1035E+01  0.6966E+01
     -3.208  0.2468E+01  0.7169E+01
     -3.126  0.3293E+01  0.7440E+01
     -3.044  0.1395E+01  0.7554E+01
     -2.962  0.1839E+01  0.7705E+01
     -2.880  0.3707E+01  0.8010E+01
     -2.798  0.4912E+01  0.8413E+01
     -2.715  0.1695E+01  0.8552E+01
     -2.633  0.9314E+00  0.8629E+01
     -2.551  0.9909E+00  0.8710E+01
     -2.469  0.1177E+01  0.8807E+01
     -2.387  0.1085E+01  0.8896E+01
     -2.305  0.2252E+01  0.9081E+01
     -2.223  0.3328E+01  0.9354E+01
     -2.141  0.2844E+01  0.9588E+01
     -2.058  0.7993E+00  0.9653E+01
     -1.976  0.3083E+00  0.9678E+01
     -1.894  0.3414E+01  0.9959E+01
     -1.812  0.3311E+01  0.1023E+02
     -1.730  0.2326E+01  0.1042E+02
     -1.648  0.9607E+00  0.1050E+02
     -1.566  0.1448E+01  0.1062E+02
     -1.484  0.1727E+01  0.1076E+02
     -1.401  0.3005E+01  0.1101E+02
     -1.319  0.3923E+01  0.1133E+02
     -1.237  0.4651E+01  0.1171E+02
     -1.155  0.1582E+01  0.1184E+02
     -1.073  0.1765E+01  0.1199E+02
     -0.991  0.1797E+01  0.1213E+02
     -0.909  0.2514E+01  0.1234E+02
     -0.827  0.3008E+01  0.1259E+02
     -0.744  0.1867E+01  0.1274E+02
     -0.662  0.8870E+00  0.1281E+02
     -0.580  0.1089E+01  0.1290E+02
     -0.498  0.3922E+01  0.1323E+02
     -0.416  0.3603E+01  0.1352E+02
     -0.334  0.3137E+01  0.1378E+02
     -0.252  0.2829E+01  0.1401E+02
     -0.170  0.1683E+01  0.1415E+02
     -0.087  0.1314E+01  0.1426E+02
     -0.005  0.2219E+01  0.1444E+02
      0.077  0.1177E+01  0.1454E+02
      0.159  0.2397E+01  0.1473E+02
      0.241  0.3026E+01  0.1498E+02
      0.323  0.1511E+01  0.1511E+02
      0.405  0.2380E+01  0.1530E+02
      0.487  0.2850E+01  0.1554E+02
      0.570  0.2991E+01  0.1578E+02
      0.652  0.1584E+01  0.1591E+02
      0.734  0.7887E+00  0.1598E+02
      0.816  0.1541E+01  0.1610E+02
      0.898  0.3936E+01  0.1643E+02
      0.980  0.3918E+01  0.1675E+02
      1.062  0.4618E+01  0.1713E+02
      1.144  0.3467E+01  0.1741E+02
      1.227  0.1034E+01  0.1750E+02
      1.309  0.6497E+00  0.1755E+02
      1.391  0.2311E+01  0.1774E+02
      1.473  0.4123E+01  0.1808E+02
      1.555  0.4095E+01  0.1841E+02
      1.637  0.2201E+01  0.1860E+02
      1.719  0.2050E+01  0.1876E+02
      1.801  0.2164E+01  0.1894E+02
      1.884  0.3025E+01  0.1919E+02
      1.966  0.3567E+01  0.1948E+02
      2.048  0.2198E+01  0.1966E+02
      2.130  0.3094E+01  0.1992E+02
      2.212  0.1496E+01  0.2004E+02
      2.294  0.8044E+00  0.2011E+02
      2.376  0.1411E+01  0.2022E+02
      2.458  0.3592E+01  0.2052E+02
      2.541  0.3437E+01  0.2080E+02
      2.623  0.3262E+01  0.2107E+02
      2.705  0.1577E+01  0.2120E+02
      2.787  0.1581E+01  0.2133E+02
      2.869  0.3740E+01  0.2163E+02
      2.951  0.6600E+01  0.2218E+02
      3.033  0.4868E+01  0.2258E+02
      3.115  0.2206E+01  0.2276E+02
      3.198  0.1626E+01  0.2289E+02
      3.280  0.2536E+01  0.2310E+02
      3.362  0.3261E+01  0.2337E+02
      3.444  0.4184E+01  0.2371E+02
      3.526  0.2659E+01  0.2393E+02
      3.608  0.2373E+01  0.2412E+02
      3.690  0.1666E+01  0.2426E+02
      3.772  0.1542E+01  0.2439E+02
      3.855  0.2123E+01  0.2456E+02
      3.937  0.2655E+01  0.2478E+02
      4.019  0.5581E+01  0.2524E+02
      4.101  0.1919E+01  0.2539E+02
      4.183  0.6256E-01  0.2540E+02
      4.265  0.4288E-04  0.2540E+02
      4.347  0.2190E-09  0.2540E+02
      4.429  0.0000E+00  0.2540E+02
      4.512  0.0000E+00  0.2540E+02
      4.594  0.0000E+00  0.2540E+02
      4.676  0.0000E+00  0.2540E+02
      4.758  0.0000E+00  0.2540E+02
      4.840  0.0000E+00  0.2540E+02
      4.922  0.0000E+00  0.2540E+02
      5.004  0.0000E+00  0.2540E+02
      5.086  0.0000E+00  0.2540E+02
      5.169  0.0000E+00  0.2540E+02
