         261
 Energy:  -1000.1665849999999     
 X   0.00000000       0.00000000       0.00000000    
 X   0.00000000      -17.1805725       0.00000000    
 X   0.00000000      -8.59028625      -14.8788128    
 X   30.0000000       0.00000000       0.00000000    
 X   0.00000000      -25.7708588      -14.8788128    
 X   30.0000000      -17.1805725       0.00000000    
 X   30.0000000      -8.59028625      -14.8788128    
 X   30.0000000      -25.7708588      -14.8788128    
 Al   2.36204004      -11.4537201      -6.61281013    
 Al   2.36204004      -14.3171396      -11.5724096    
 Al   2.36204004      -8.59029007      -1.65320003    
 Al   2.36204004      -17.1805706      -6.61281013    
 Al   2.36204004      -20.0440006      -11.5724096    
 Al   2.36204004      -14.3171396      -1.65320003    
 Al   2.36204004      -5.72686005      -6.61281013    
 Al   2.36204004      -8.59029007      -11.5724096    
 Al   2.36204004      -2.86343002      -1.65320003    
 Al   4.71078014      -14.3171396      -8.26601028    
 Al   4.71078014      -17.1805706      -13.2256098    
 Al   4.71078014      -11.4537201      -3.30640006    
 Al   4.71078014      -20.0440006      -8.26601028    
 Al   4.71078014      -22.9074306      -13.2256098    
 Al   4.71078014      -17.1805706      -3.30640006    
 Al   4.71078014      -8.59029007      -8.26601028    
 Al   4.71078014      -11.4537201      -13.2256098    
 Al   4.71078014      -5.72686005      -3.30640006    
 Al   7.01272011      -17.1805706      -9.91921043    
 Al   7.01272011      -11.4537201       0.00000000    
 Al   7.01272011      -14.3171396      -4.95959997    
 Al   7.01272011      -5.72686005      -9.91921043    
 Al   7.01272011       0.00000000       0.00000000    
 Al   7.01272011      -2.86343002      -4.95959997    
 Al   7.01272011      -11.4537201      -9.91921043    
 Al   7.01272011      -5.72686005       0.00000000    
 Al   7.01272011      -8.59029007      -4.95959997    
 Al   9.35192013      -20.0440006      -11.5724096    
 Al   9.35192013      -14.3171396      -1.65320003    
 Al   9.35192013      -17.1805706      -6.61281013    
 Al   9.35192013      -8.59029007      -11.5724096    
 Al   9.35192013      -2.86343002      -1.65320003    
 Al   9.35192013      -5.72686005      -6.61281013    
 Al   9.35192013      -14.3171396      -11.5724096    
 Al   9.35192013      -8.59029007      -1.65320003    
 Al   9.35192013      -11.4537201      -6.61281013    
 Al   11.6911201      -22.9074306      -13.2256098    
 Al   11.6911201      -17.1805706      -3.30640006    
 Al   11.6911201      -20.0440006      -8.26601028    
 Al   11.6911201      -11.4537201      -13.2256098    
 Al   11.6911201      -5.72686005      -3.30640006    
 Al   11.6911201      -8.59029007      -8.26601028    
 Al   11.6911201      -17.1805706      -13.2256098    
 Al   11.6911201      -11.4537201      -3.30640006    
 Al   11.6911201      -14.3171396      -8.26601028    
 Al   13.9930601       0.00000000       0.00000000    
 Al   13.9930601      -2.86343002      -4.95959997    
 Al   13.9930601      -5.72686005      -9.91921043    
 Al   13.9930601      -5.72686005       0.00000000    
 Al   13.9930601      -8.59029007      -4.95959997    
 Al   13.9930601      -11.4537201      -9.91921043    
 Al   13.9930601      -11.4537201       0.00000000    
 Al   13.9930601      -14.3171396      -4.95959997    
 Al   13.9930601      -17.1805706      -9.91921043    
 Al   16.3418007      -2.86343002      -1.65320003    
 Al   16.3418007      -5.72686005      -6.61281013    
 Al   16.3418007      -8.59029007      -11.5724096    
 Al   16.3418007      -8.59029007      -1.65320003    
 Al   16.3418007      -11.4537201      -6.61281013    
 Al   16.3418007      -14.3171396      -11.5724096    
 Al   16.3418007      -14.3171396      -1.65320003    
 Al   16.3418007      -17.1805706      -6.61281013    
 Al   16.3418007      -20.0440006      -11.5724096    
 Al   2.36204004      -7.15856981      -4.13299990    
 Al   2.36204004      -10.0220003      -9.09261036    
 Al   2.36204004      -12.8854303      -14.0522099    
 Al   2.36204004      -12.8854303      -4.13299990    
 Al   2.36204004      -15.7488604      -9.09261036    
 Al   2.36204004      -18.6122894      -14.0522099    
 Al   2.36204004      -18.6122894      -4.13299990    
 Al   2.36204004      -21.4757195      -9.09261036    
 Al   2.36204004      -24.3391495      -14.0522099    
 Al   4.71078014      -10.0220003      -5.78621006    
 Al   4.71078014      -12.8854303      -10.7458096    
 Al   4.71078014      -7.15856981     -0.826600015    
 Al   4.71078014      -15.7488604      -5.78621006    
 Al   4.71078014      -18.6122894      -10.7458096    
 Al   4.71078014      -12.8854303     -0.826600015    
 Al   4.71078014      -4.29513979      -5.78621006    
 Al   4.71078014      -7.15856981      -10.7458096    
 Al   4.71078014      -1.43171000     -0.826600015    
 Al   7.01272011      -12.8854303      -7.43941021    
 Al   7.01272011      -15.7488604      -12.3990097    
 Al   7.01272011      -10.0220003      -2.47979999    
 Al   7.01272011      -18.6122894      -7.43941021    
 Al   7.01272011      -21.4757195      -12.3990097    
 Al   7.01272011      -15.7488604      -2.47979999    
 Al   7.01272011      -7.15856981      -7.43941021    
 Al   7.01272011      -10.0220003      -12.3990097    
 Al   7.01272011      -4.29513979      -2.47979999    
 Al   9.35192013      -15.7488604      -9.09261036    
 Al   9.35192013      -18.6122894      -14.0522099    
 Al   9.35192013      -12.8854303      -4.13299990    
 Al   9.35192013      -21.4757195      -9.09261036    
 Al   9.35192013      -24.3391495      -14.0522099    
 Al   9.35192013      -18.6122894      -4.13299990    
 Al   9.35192013      -10.0220003      -9.09261036    
 Al   9.35192013      -12.8854303      -14.0522099    
 Al   9.35192013      -7.15856981      -4.13299990    
 Al   11.6911201      -18.6122894      -10.7458096    
 Al   11.6911201      -12.8854303     -0.826600015    
 Al   11.6911201      -15.7488604      -5.78621006    
 Al   11.6911201      -7.15856981      -10.7458096    
 Al   11.6911201      -1.43171000     -0.826600015    
 Al   11.6911201      -4.29513979      -5.78621006    
 Al   11.6911201      -12.8854303      -10.7458096    
 Al   11.6911201      -7.15856981     -0.826600015    
 Al   11.6911201      -10.0220003      -5.78621006    
 Al   13.9930601      -21.4757195      -12.3990097    
 Al   13.9930601      -15.7488604      -2.47979999    
 Al   13.9930601      -18.6122894      -7.43941021    
 Al   13.9930601      -10.0220003      -12.3990097    
 Al   13.9930601      -4.29513979      -2.47979999    
 Al   13.9930601      -7.15856981      -7.43941021    
 Al   13.9930601      -15.7488604      -12.3990097    
 Al   13.9930601      -10.0220003      -2.47979999    
 Al   13.9930601      -12.8854303      -7.43941021    
 Al   16.3418007      -24.3391495      -14.0522099    
 Al   16.3418007      -18.6122894      -4.13299990    
 Al   16.3418007      -21.4757195      -9.09261036    
 Al   16.3418007      -12.8854303      -14.0522099    
 Al   16.3418007      -7.15856981      -4.13299990    
 Al   16.3418007      -10.0220003      -9.09261036    
 Al   16.3418007      -18.6122894      -14.0522099    
 Al   16.3418007      -12.8854303      -4.13299990    
 Al   16.3418007      -15.7488604      -9.09261036    
 Al   2.36204004      -8.59029007      -6.61281013    
 Al   2.36204004      -11.4537201      -11.5724096    
 Al   2.36204004      -5.72686005      -1.65320003    
 Al   2.36204004      -14.3171396      -6.61281013    
 Al   2.36204004      -17.1805706      -11.5724096    
 Al   2.36204004      -11.4537201      -1.65320003    
 Al   2.36204004      -20.0440006      -6.61281013    
 Al   2.36204004      -22.9074306      -11.5724096    
 Al   2.36204004      -17.1805706      -1.65320003    
 Al   4.71078014      -11.4537201      -8.26601028    
 Al   4.71078014      -14.3171396      -13.2256098    
 Al   4.71078014      -8.59029007      -3.30640006    
 Al   4.71078014      -17.1805706      -8.26601028    
 Al   4.71078014      -20.0440006      -13.2256098    
 Al   4.71078014      -14.3171396      -3.30640006    
 Al   4.71078014      -5.72686005      -8.26601028    
 Al   4.71078014      -8.59029007      -13.2256098    
 Al   4.71078014      -2.86343002      -3.30640006    
 Al   7.01272011      -14.3171396      -9.91921043    
 Al   7.01272011      -8.59029007       0.00000000    
 Al   7.01272011      -11.4537201      -4.95959997    
 Al   7.01272011      -20.0440006      -9.91921043    
 Al   7.01272011      -14.3171396       0.00000000    
 Al   7.01272011      -17.1805706      -4.95959997    
 Al   7.01272011      -8.59029007      -9.91921043    
 Al   7.01272011      -2.86343002       0.00000000    
 Al   7.01272011      -5.72686005      -4.95959997    
 Al   9.35192013      -17.1805706      -11.5724096    
 Al   9.35192013      -11.4537201      -1.65320003    
 Al   9.35192013      -14.3171396      -6.61281013    
 Al   9.35192013      -22.9074306      -11.5724096    
 Al   9.35192013      -17.1805706      -1.65320003    
 Al   9.35192013      -20.0440006      -6.61281013    
 Al   9.35192013      -11.4537201      -11.5724096    
 Al   9.35192013      -5.72686005      -1.65320003    
 Al   9.35192013      -8.59029007      -6.61281013    
 Al   11.6911201      -20.0440006      -13.2256098    
 Al   11.6911201      -14.3171396      -3.30640006    
 Al   11.6911201      -17.1805706      -8.26601028    
 Al   11.6911201      -8.59029007      -13.2256098    
 Al   11.6911201      -2.86343002      -3.30640006    
 Al   11.6911201      -5.72686005      -8.26601028    
 Al   11.6911201      -14.3171396      -13.2256098    
 Al   11.6911201      -8.59029007      -3.30640006    
 Al   11.6911201      -11.4537201      -8.26601028    
 Al   13.9930601      -14.3171396       0.00000000    
 Al   13.9930601      -17.1805706      -4.95959997    
 Al   13.9930601      -20.0440006      -9.91921043    
 Al   13.9930601      -2.86343002       0.00000000    
 Al   13.9930601      -5.72686005      -4.95959997    
 Al   13.9930601      -8.59029007      -9.91921043    
 Al   13.9930601      -8.59029007       0.00000000    
 Al   13.9930601      -11.4537201      -4.95959997    
 Al   13.9930601      -14.3171396      -9.91921043    
 Al   16.3418007      -17.1805706      -1.65320003    
 Al   16.3418007      -20.0440006      -6.61281013    
 Al   16.3418007      -22.9074306      -11.5724096    
 Al   16.3418007      -5.72686005      -1.65320003    
 Al   16.3418007      -8.59029007      -6.61281013    
 Al   16.3418007      -11.4537201      -11.5724096    
 Al   16.3418007      -11.4537201      -1.65320003    
 Al   16.3418007      -14.3171396      -6.61281013    
 Al   16.3418007      -17.1805706      -11.5724096    
 Al   2.36204004      -10.0220003      -4.13299990    
 Al   2.36204004      -12.8854303      -9.09261036    
 Al   2.36204004      -15.7488604      -14.0522099    
 Al   2.36204004      -15.7488604      -4.13299990    
 Al   2.36204004      -18.6122894      -9.09261036    
 Al   2.36204004      -21.4757195      -14.0522099    
 Al   2.36204004      -4.29513979      -4.13299990    
 Al   2.36204004      -7.15856981      -9.09261036    
 Al   2.36204004      -10.0220003      -14.0522099    
 Al   4.71078014      -12.8854303      -5.78621006    
 Al   4.71078014      -15.7488604      -10.7458096    
 Al   4.71078014      -10.0220003     -0.826600015    
 Al   4.71078014      -18.6122894      -5.78621006    
 Al   4.71078014      -21.4757195      -10.7458096    
 Al   4.71078014      -15.7488604     -0.826600015    
 Al   4.71078014      -7.15856981      -5.78621006    
 Al   4.71078014      -10.0220003      -10.7458096    
 Al   4.71078014      -4.29513979     -0.826600015    
 Al   7.01272011      -15.7488604      -7.43941021    
 Al   7.01272011      -18.6122894      -12.3990097    
 Al   7.01272011      -12.8854303      -2.47979999    
 Al   7.01272011      -4.29513979      -7.43941021    
 Al   7.01272011      -7.15856981      -12.3990097    
 Al   7.01272011      -1.43171000      -2.47979999    
 Al   7.01272011      -10.0220003      -7.43941021    
 Al   7.01272011      -12.8854303      -12.3990097    
 Al   7.01272011      -7.15856981      -2.47979999    
 Al   9.35192013      -18.6122894      -9.09261036    
 Al   9.35192013      -21.4757195      -14.0522099    
 Al   9.35192013      -15.7488604      -4.13299990    
 Al   9.35192013      -7.15856981      -9.09261036    
 Al   9.35192013      -10.0220003      -14.0522099    
 Al   9.35192013      -4.29513979      -4.13299990    
 Al   9.35192013      -12.8854303      -9.09261036    
 Al   9.35192013      -15.7488604      -14.0522099    
 Al   9.35192013      -10.0220003      -4.13299990    
 Al   11.6911201      -21.4757195      -10.7458096    
 Al   11.6911201      -15.7488604     -0.826600015    
 Al   11.6911201      -18.6122894      -5.78621006    
 Al   11.6911201      -10.0220003      -10.7458096    
 Al   11.6911201      -4.29513979     -0.826600015    
 Al   11.6911201      -7.15856981      -5.78621006    
 Al   11.6911201      -15.7488604      -10.7458096    
 Al   11.6911201      -10.0220003     -0.826600015    
 Al   11.6911201      -12.8854303      -5.78621006    
 Al   13.9930601      -7.15856981      -12.3990097    
 Al   13.9930601      -1.43171000      -2.47979999    
 Al   13.9930601      -4.29513979      -7.43941021    
 Al   13.9930601      -12.8854303      -12.3990097    
 Al   13.9930601      -7.15856981      -2.47979999    
 Al   13.9930601      -10.0220003      -7.43941021    
 Al   13.9930601      -18.6122894      -12.3990097    
 Al   13.9930601      -12.8854303      -2.47979999    
 Al   13.9930601      -15.7488604      -7.43941021    
 Al   16.3418007      -10.0220003      -14.0522099    
 Al   16.3418007      -4.29513979      -4.13299990    
 Al   16.3418007      -7.15856981      -9.09261036    
 Al   16.3418007      -15.7488604      -14.0522099    
 Al   16.3418007      -10.0220003      -4.13299990    
 Al   16.3418007      -12.8854303      -9.09261036    
 Al   16.3418007      -21.4757195      -14.0522099    
 Al   16.3418007      -15.7488604      -4.13299990    
 Al   16.3418007      -18.6122894      -9.09261036    
 O    17.7000008      -11.4537201      -8.26601028    
         261
 Energy:  -1000.5267019000000     
 X   0.00000000       0.00000000       0.00000000    
 X   0.00000000      -17.1805725       0.00000000    
 X   0.00000000      -8.59028625      -14.8788128    
 X   30.0000000       0.00000000       0.00000000    
 X   0.00000000      -25.7708588      -14.8788128    
 X   30.0000000      -17.1805725       0.00000000    
 X   30.0000000      -8.59028625      -14.8788128    
 X   30.0000000      -25.7708588      -14.8788128    
 Al   2.36429000      -11.4537201      -6.61277008    
 Al   2.36392999      -14.3171196      -11.5727701    
 Al   2.36388993      -8.59045982      -1.65313995    
 Al   2.36368990      -17.1806698      -6.61275005    
 Al   2.36388993      -20.0440006      -11.5719004    
 Al   2.36388993      -14.3169699      -1.65313995    
 Al   2.36368990      -5.72675991      -6.61275005    
 Al   2.36392999      -8.59031010      -11.5727701    
 Al   2.36380005      -2.86343002      -1.65315998    
 Al   4.71190023      -14.3173504      -8.26620007    
 Al   4.71151018      -17.1805496      -13.2254601    
 Al   4.71161985      -11.4537201      -3.30630994    
 Al   4.71166992      -20.0440006      -8.26595020    
 Al   4.71151018      -22.9074497      -13.2254601    
 Al   4.71155977      -17.1807098      -3.30646992    
 Al   4.71190023      -8.59008026      -8.26620007    
 Al   4.71177006      -11.4537201      -13.2257404    
 Al   4.71155977      -5.72671986      -3.30646992    
 Al   7.01314020      -17.1804695      -9.91940022    
 Al   7.01312017      -11.4537201       1.69999999E-04
 Al   7.01306009      -14.3168497      -4.95985985    
 Al   7.01314020      -5.72696018      -9.91940022    
 Al   7.01303005       5.99999985E-05  -2.99999992E-05
 Al   7.01294994      -2.86343002      -4.95931005    
 Al   7.01293993      -11.4537201      -9.91942978    
 Al   7.01303005      -5.72692013      -2.99999992E-05
 Al   7.01306009      -8.59057999      -4.95985985    
 Al   9.35149002      -20.0440006      -11.5723801    
 Al   9.35175991      -14.3172197      -1.65330994    
 Al   9.35181046      -17.1803799      -6.61281013    
 Al   9.35196018      -8.59051991      -11.5723600    
 Al   9.35214043      -2.86343002      -1.65322006    
 Al   9.35181046      -5.72704983      -6.61281013    
 Al   9.35196018      -14.3169098      -11.5723600    
 Al   9.35175991      -8.59020996      -1.65330994    
 Al   9.35192966      -11.4537201      -6.61292982    
 Al   11.6910200      -22.9075203      -13.2255001    
 Al   11.6908903      -17.1805897      -3.30633998    
 Al   11.6908302      -20.0440006      -8.26589012    
 Al   11.6911097      -11.4537201      -13.2251797    
 Al   11.6908903      -5.72684002      -3.30633998    
 Al   11.6905499      -8.59045029      -8.26585960    
 Al   11.6910200      -17.1804905      -13.2255001    
 Al   11.6913404      -11.4537201      -3.30686998    
 Al   11.6905499      -14.3169804      -8.26585960    
 Al   13.9925804       1.50000007E-04  -7.99999980E-05
 Al   13.9922104      -2.86343002      -4.95932007    
 Al   13.9922400      -5.72662020      -9.91959953    
 Al   13.9925804      -5.72700977      -7.99999980E-05
 Al   13.9922705      -8.59027004      -4.95997000    
 Al   13.9940100      -11.4537201      -9.91831970    
 Al   13.9918604      -11.4537201       9.99999975E-06
 Al   13.9922705      -14.3171701      -4.95997000    
 Al   13.9922400      -17.1808109      -9.91959953    
 Al   16.3398991      -2.86343002      -1.65309000    
 Al   16.3402596      -5.72686005      -6.61271000    
 Al   16.3402500      -8.59088039      -11.5719604    
 Al   16.3400097      -8.59039021      -1.65321004    
 Al   16.3633709      -11.4537201      -6.62765980    
 Al   16.3402500      -14.3165503      -11.5719604    
 Al   16.3400097      -14.3170404      -1.65321004    
 Al   16.3402596      -17.1805706      -6.61271000    
 Al   16.3399296      -20.0440006      -11.5721502    
 Al   2.36368990      -7.15847015      -4.13294983    
 Al   2.36429000      -10.0219698      -9.09263039    
 Al   2.36368990      -12.8854303      -14.0523300    
 Al   2.36392999      -12.8857498      -4.13285017    
 Al   2.36392999      -15.7491598      -9.09241009    
 Al   2.36388993      -18.6118393      -14.0524702    
 Al   2.36380005      -18.6122494      -4.13301992    
 Al   2.36388993      -21.4757500      -9.09278965    
 Al   2.36388993      -24.3390102      -14.0520897    
 Al   4.71190023      -10.0220604      -5.78593016    
 Al   4.71190023      -12.8857002      -10.7459002    
 Al   4.71166992      -7.15853024     -0.826629996    
 Al   4.71177006      -15.7489700      -5.78613997    
 Al   4.71151018      -18.6121407      -10.7458696    
 Al   4.71151018      -12.8853102     -0.826690018    
 Al   4.71155977      -4.29512978      -5.78604984    
 Al   4.71161985      -7.15849018      -10.7458601    
 Al   4.71155977      -1.43183994     -0.826690018    
 Al   7.01293993      -12.8856201      -7.43930006    
 Al   7.01314020      -15.7489700      -12.3988304    
 Al   7.01314020      -10.0222197      -2.47979999    
 Al   7.01303005      -18.6123409      -7.43943977    
 Al   7.01312017      -21.4755707      -12.3990898    
 Al   7.01303005      -15.7488604      -2.47973990    
 Al   7.01306009      -7.15893984      -7.43953991    
 Al   7.01306009      -10.0220699      -12.3986301    
 Al   7.01294994      -4.29488993      -2.47994995    
 Al   9.35196018      -15.7487001      -9.09243011    
 Al   9.35149002      -18.6122608      -14.0522299    
 Al   9.35196018      -12.8855104      -4.13323021    
 Al   9.35175991      -21.4757710      -9.09249020    
 Al   9.35175991      -24.3392696      -14.0522203    
 Al   9.35214043      -18.6123009      -4.13298988    
 Al   9.35192966      -10.0221100      -9.09255028    
 Al   9.35181046      -12.8853397      -14.0520401    
 Al   9.35181046      -7.15867996      -4.13317013    
 Al   11.6910200      -18.6121502      -10.7457895    
 Al   11.6910200      -12.8853798     -0.826730013    
 Al   11.6911097      -15.7484903      -5.78641987    
 Al   11.6913404      -7.15897989      -10.7455702    
 Al   11.6908903      -1.43166995     -0.826650023    
 Al   11.6908903      -4.29508018      -5.78622007    
 Al   11.6905499      -12.8852196      -10.7457399    
 Al   11.6908302      -7.15847015     -0.826659977    
 Al   11.6905499      -10.0219498      -5.78641987    
 Al   13.9918604      -21.4757099      -12.3990202    
 Al   13.9925804      -15.7488499      -2.47962999    
 Al   13.9925804      -18.6124306      -7.43949986    
 Al   13.9922705      -10.0223303      -12.3988400    
 Al   13.9922104      -4.29489994      -2.47993994    
 Al   13.9922705      -7.15888023      -7.43919992    
 Al   13.9922400      -15.7493200      -12.3990202    
 Al   13.9922400      -10.0222197      -2.47939992    
 Al   13.9940100      -12.8846598      -7.43984985    
 Al   16.3400097      -24.3390999      -14.0521202    
 Al   16.3398991      -18.6121902      -4.13305998    
 Al   16.3400097      -21.4757710      -9.09270000    
 Al   16.3402596      -12.8853502      -14.0522604    
 Al   16.3402596      -7.15849018      -4.13304996    
 Al   16.3633709      -10.0348597      -9.08518028    
 Al   16.3399296      -18.6120701      -14.0523396    
 Al   16.3402500      -12.8853397      -4.13373995    
 Al   16.3402500      -15.7481699      -9.09232044    
 Al   2.36361003      -8.59000015      -6.61263990    
 Al   2.36361003      -11.4537201      -11.5727501    
 Al   2.36381006      -5.72676992      -1.65324998    
 Al   2.36361003      -14.3174400      -6.61263990    
 Al   2.36386991      -17.1805496      -11.5724001    
 Al   2.36386991      -11.4537201      -1.65322995    
 Al   2.36381006      -20.0440006      -6.61271000    
 Al   2.36386991      -22.9074593      -11.5724001    
 Al   2.36381006      -17.1806602      -1.65324998    
 Al   4.71203995      -11.4537201      -8.26601028    
 Al   4.71151018      -14.3171701      -13.2256498    
 Al   4.71151018      -8.59025955      -3.30636001    
 Al   4.71151018      -17.1806202      -8.26601028    
 Al   4.71155024      -20.0440006      -13.2256098    
 Al   4.71151018      -14.3171701      -3.30636001    
 Al   4.71151018      -5.72680998      -8.26601028    
 Al   4.71151018      -8.59025955      -13.2256498    
 Al   4.71179008      -2.86343002      -3.30640006    
 Al   7.01295996      -14.3171396      -9.91921043    
 Al   7.01297998      -8.59058952       1.80000003E-04
 Al   7.01295996      -11.4537201      -4.95960999    
 Al   7.01297998      -20.0440006      -9.91956043    
 Al   7.01297998      -14.3168402       1.80000003E-04
 Al   7.01283979      -17.1807098      -4.95952988    
 Al   7.01295996      -8.59029007      -9.91921043    
 Al   7.01283979      -2.86343002      -1.59999996E-04
 Al   7.01283979      -5.72671986      -4.95952988    
 Al   9.35140038      -17.1807804      -11.5725298    
 Al   9.35140038      -11.4537201      -1.65296996    
 Al   9.35184002      -14.3171396      -6.61281013    
 Al   9.35140038      -22.9072304      -11.5725298    
 Al   9.35204029      -17.1807899      -1.65331995    
 Al   9.35204029      -20.0440006      -6.61255980    
 Al   9.35184002      -11.4537201      -11.5724001    
 Al   9.35204029      -5.72664022      -1.65331995    
 Al   9.35184002      -8.59029007      -6.61281013    
 Al   11.6917896      -20.0440006      -13.2256098    
 Al   11.6907301      -14.3168697      -3.30678010    
 Al   11.6907301      -17.1801109      -8.26605988    
 Al   11.6907301      -8.59047031      -13.2251797    
 Al   11.6910400      -2.86343002      -3.30640006    
 Al   11.6907301      -5.72732019      -8.26605988    
 Al   11.6907301      -14.3169603      -13.2251797    
 Al   11.6907301      -8.59055996      -3.30678010    
 Al   11.6910295      -11.4537201      -8.26601028    
 Al   13.9921198      -14.3173103      -9.00000014E-05
 Al   13.9921904      -17.1809292      -4.95940018    
 Al   13.9921198      -20.0440006      -9.91901970    
 Al   13.9921904      -2.86343002      -4.10000008E-04
 Al   13.9921904      -5.72650003      -4.95940018    
 Al   13.9905996      -8.58934975      -9.91975021    
 Al   13.9921198      -8.59012032      -9.00000014E-05
 Al   13.9905996      -11.4537201      -4.95851994    
 Al   13.9905996      -14.3180799      -9.91975021    
 Al   16.3400898      -17.1806107      -1.65322006    
 Al   16.3400898      -20.0440006      -6.61276007    
 Al   16.3401909      -22.9077301      -11.5722399    
 Al   16.3400898      -5.72681999      -1.65322006    
 Al   16.3377800      -8.58796978      -6.61147022    
 Al   16.3377800      -11.4537201      -11.5750799    
 Al   16.3401909      -11.4537201      -1.65354002    
 Al   16.3377800      -14.3194599      -6.61147022    
 Al   16.3401909      -17.1802807      -11.5722399    
 Al   2.36392999      -10.0216799      -4.13285017    
 Al   2.36429000      -12.8854599      -9.09263039    
 Al   2.36388993      -15.7489901      -14.0520897    
 Al   2.36368990      -15.7489595      -4.13294983    
 Al   2.36388993      -18.6122494      -9.09278965    
 Al   2.36388993      -21.4761600      -14.0524702    
 Al   2.36380005      -4.29517984      -4.13301992    
 Al   2.36392999      -7.15827990      -9.09241009    
 Al   2.36368990      -10.0220098      -14.0523300    
 Al   4.71190023      -12.8853703      -5.78593016    
 Al   4.71161985      -15.7489405      -10.7458601    
 Al   4.71151018      -10.0221300     -0.826690018    
 Al   4.71155977      -18.6123009      -5.78604984    
 Al   4.71151018      -21.4758606      -10.7458696    
 Al   4.71166992      -15.7489100     -0.826629996    
 Al   4.71177006      -7.15846014      -5.78613997    
 Al   4.71190023      -10.0217304      -10.7459002    
 Al   4.71155977      -4.29501009     -0.826690018    
 Al   7.01306009      -15.7484903      -7.43953991    
 Al   7.01312017      -18.6124306      -12.3990898    
 Al   7.01314020      -12.8852100      -2.47979999    
 Al   7.01303005      -4.29509020      -7.43943977    
 Al   7.01314020      -7.15846014      -12.3988304    
 Al   7.01294994      -1.43197000      -2.47994995    
 Al   7.01293993      -10.0218096      -7.43930006    
 Al   7.01306009      -12.8853598      -12.3986301    
 Al   7.01303005      -7.15856981      -2.47973990    
 Al   9.35175991      -18.6122303      -9.09249020    
 Al   9.35149002      -21.4757404      -14.0522299    
 Al   9.35181046      -15.7487602      -4.13317013    
 Al   9.35196018      -7.15873003      -9.09243011    
 Al   9.35181046      -10.0220900      -14.0520401    
 Al   9.35214043      -4.29512978      -4.13298988    
 Al   9.35192966      -12.8853302      -9.09255028    
 Al   9.35175991      -15.7487297      -14.0522203    
 Al   9.35196018      -10.0219202      -4.13323021    
 Al   11.6910200      -21.4758492      -10.7457895    
 Al   11.6908302      -15.7489595     -0.826659977    
 Al   11.6908903      -18.6123505      -5.78622007    
 Al   11.6905499      -10.0222101      -10.7457399    
 Al   11.6908903      -4.29518986     -0.826650023    
 Al   11.6911097      -7.15893984      -5.78641987    
 Al   11.6913404      -15.7484503      -10.7455702    
 Al   11.6910200      -10.0220499     -0.826730013    
 Al   11.6905499      -12.8854799      -5.78641987    
 Al   13.9922400      -7.15812016      -12.3990202    
 Al   13.9922104      -1.43195999      -2.47993994    
 Al   13.9925804      -4.29500008      -7.43949986    
 Al   13.9922705      -12.8851004      -12.3988400    
 Al   13.9925804      -7.15857983      -2.47962999    
 Al   13.9940100      -10.0227699      -7.43984985    
 Al   13.9918604      -18.6123009      -12.3990202    
 Al   13.9922400      -12.8852100      -2.47939992    
 Al   13.9922705      -15.7485504      -7.43919992    
 Al   16.3402596      -10.0220804      -14.0522604    
 Al   16.3398991      -4.29523993      -4.13305998    
 Al   16.3402500      -7.15925980      -9.09232044    
 Al   16.3400097      -15.7489100      -14.0521202    
 Al   16.3402500      -10.0220900      -4.13373995    
 Al   16.3633709      -12.8725700      -9.08518028    
 Al   16.3399296      -21.4759407      -14.0523396    
 Al   16.3402596      -15.7489405      -4.13304996    
 Al   16.3400097      -18.6122303      -9.09270000    
 O    17.6297092      -11.4537201      -8.26601028    
         261
 Energy:  -1001.1120716000000     
 X   0.00000000       0.00000000       0.00000000    
 X   0.00000000      -17.1805725       0.00000000    
 X   0.00000000      -8.59028625      -14.8788128    
 X   30.0000000       0.00000000       0.00000000    
 X   0.00000000      -25.7708588      -14.8788128    
 X   30.0000000      -17.1805725       0.00000000    
 X   30.0000000      -8.59028625      -14.8788128    
 X   30.0000000      -25.7708588      -14.8788128    
 Al   2.37089992      -11.4537201      -6.61265993    
 Al   2.36946988      -14.3170500      -11.5738096    
 Al   2.36932993      -8.59095955      -1.65297997    
 Al   2.36851001      -17.1809597      -6.61256981    
 Al   2.36932993      -20.0440006      -11.5703802    
 Al   2.36932993      -14.3164701      -1.65297997    
 Al   2.36851001      -5.72648001      -6.61256981    
 Al   2.36946988      -8.59037971      -11.5738096    
 Al   2.36897993      -2.86343002      -1.65304995    
 Al   4.71518993      -14.3179703      -8.26675987    
 Al   4.71366978      -17.1805000      -13.2250004    
 Al   4.71407986      -11.4537201      -3.30603004    
 Al   4.71430016      -20.0440006      -8.26580048    