 running on    1 total cores
 distrk:  each k-point on    1 cores,    1 groups
 distr:  one band on    1 cores,    1 groups
 OpenACC runtime initialized ...    1 GPUs detected
 vasp.6.2.1 16May21 (build Jun 16 2021 03:23:30) complex                         
 POSCAR found type information on POSCAR AlO 
 POSCAR found :  2 types and     253 ions
 scaLAPACK will be used selectively (only on CPU)
 LDA part: xc-table for Pade appr. of Perdew
 POSCAR found type information on POSCAR AlO 
 POSCAR found :  2 types and     253 ions
 POSCAR, INCAR and KPOINTS ok, starting setup
 FFT: planning ...
 WAVECAR not read
 entering main loop
       N       E                     dE             d eps       ncg     rms          rms(c)
DAV:   1     0.234191085769E+04    0.23419E+04   -0.20212E+05  2032   0.852E+02
DAV:   2    -0.710418631559E+03   -0.30523E+04   -0.28830E+04  2752   0.201E+02
DAV:   3    -0.944720526687E+03   -0.23430E+03   -0.22361E+03  3024   0.435E+01
DAV:   4    -0.955468763834E+03   -0.10748E+02   -0.10468E+02  3000   0.922E+00
DAV:   5    -0.955920115863E+03   -0.45135E+00   -0.44878E+00  2984   0.209E+00    0.200E+01
DAV:   6    -0.967180130253E+03   -0.11260E+02   -0.19592E+02  2748   0.171E+01    0.192E+01
DAV:   7    -0.930849147850E+03    0.36331E+02   -0.13333E+02  2524   0.160E+01    0.111E+01
DAV:   8    -0.938292891779E+03   -0.74437E+01   -0.39679E+01  2720   0.930E+00    0.931E+00
DAV:   9    -0.930614729926E+03    0.76782E+01   -0.10038E+01  2616   0.885E+00    0.582E+00
DAV:  10    -0.927737498692E+03    0.28772E+01   -0.91839E+00  2544   0.426E+00    0.324E+00
DAV:  11    -0.927522300324E+03    0.21520E+00   -0.18701E+00  2488   0.223E+00    0.159E+00
DAV:  12    -0.927551217817E+03   -0.28917E-01   -0.13988E+00  2648   0.120E+00    0.152E+00
DAV:  13    -0.927497517968E+03    0.53700E-01   -0.11189E-01  2584   0.697E-01    0.103E+00
DAV:  14    -0.927477202280E+03    0.20316E-01   -0.17053E-01  2448   0.475E-01    0.475E-01
DAV:  15    -0.927465741281E+03    0.11461E-01   -0.30311E-02  2480   0.334E-01    0.284E-01
DAV:  16    -0.927467883720E+03   -0.21424E-02   -0.30564E-02  2416   0.159E-01    0.340E-01
DAV:  17    -0.927473024595E+03   -0.51409E-02   -0.92302E-03  2648   0.143E-01    0.166E-01
DAV:  18    -0.927480799226E+03   -0.77746E-02   -0.13011E-02  2744   0.123E-01    0.185E-01
DAV:  19    -0.927485066384E+03   -0.42672E-02   -0.19817E-03  2480   0.529E-02    0.237E-01
DAV:  20    -0.927487889155E+03   -0.28228E-02   -0.77781E-04  2160   0.429E-02    0.194E-01
DAV:  21    -0.927488463915E+03   -0.57476E-03   -0.10767E-03  2672   0.446E-02    0.107E-01
DAV:  22    -0.927489059647E+03   -0.59573E-03   -0.55207E-04  2424   0.208E-02    0.600E-02
DAV:  23    -0.927490324350E+03   -0.12647E-02   -0.73616E-04  3088   0.407E-02    0.373E-02
DAV:  24    -0.927491696434E+03   -0.13721E-02   -0.98554E-04  2440   0.310E-02    0.112E-01
DAV:  25    -0.927491964541E+03   -0.26811E-03   -0.73395E-05  2208   0.200E-02    0.907E-02
DAV:  26    -0.927492402775E+03   -0.43823E-03   -0.39394E-04  2456   0.218E-02    0.368E-02
DAV:  27    -0.927492554686E+03   -0.15191E-03   -0.56580E-05  2264   0.712E-03    0.251E-02
DAV:  28    -0.927492958075E+03   -0.40339E-03   -0.42052E-05  2080   0.812E-03    0.103E-02
DAV:  29    -0.927493201306E+03   -0.24323E-03   -0.40879E-05  2064   0.457E-03    0.460E-03
DAV:  30    -0.927493227869E+03   -0.26564E-04   -0.17226E-06  1352   0.177E-03    0.612E-03
DAV:  31    -0.927493257127E+03   -0.29258E-04   -0.23038E-06  1384   0.125E-03    0.575E-03
DAV:  32    -0.927493263123E+03   -0.59961E-05   -0.44393E-07  1192   0.109E-03    0.598E-03
DAV:  33    -0.927493265031E+03   -0.19081E-05   -0.35900E-07  1168   0.630E-04
   1 F= -.10001666E+04 E0= -.10001376E+04  d E =-.100017E+04
 curvature:   0.00 expect dE= 0.000E+00 dE for cont linesearch  0.000E+00
 trial: gam= 0.00000 g(F)=  0.382E+00 g(S)=  0.000E+00 ort = 0.000E+00 (trialstep = 0.100E+01)
 search vector abs. value=  0.382E+00
 bond charge predicted
       N       E                     dE             d eps       ncg     rms          rms(c)
DAV:   1    -0.927646729271E+03   -0.15347E+00   -0.33298E+01  2240   0.722E+00    0.491E+00
DAV:   2    -0.927871076777E+03   -0.22435E+00   -0.24854E+00  2240   0.151E+00    0.190E+00
DAV:   3    -0.927869712339E+03    0.13644E-02   -0.64170E-02  2700   0.902E-01    0.105E+00
DAV:   4    -0.927862481973E+03    0.72304E-02   -0.84506E-02  2576   0.745E-01    0.774E-01
DAV:   5    -0.927843195249E+03    0.19287E-01   -0.16623E-02  2584   0.367E-01    0.463E-01
DAV:   6    -0.927842347658E+03    0.84759E-03   -0.61764E-03  2544   0.139E-01    0.410E-01
DAV:   7    -0.927842317135E+03    0.30523E-04   -0.36007E-03  3280   0.126E-01    0.346E-01
DAV:   8    -0.927842225107E+03    0.92028E-04   -0.37718E-03  2480   0.751E-02    0.143E-01
DAV:   9    -0.927841843521E+03    0.38159E-03   -0.14366E-03  2648   0.720E-02    0.667E-02
DAV:  10    -0.927841961486E+03   -0.11796E-03   -0.16557E-03  2544   0.357E-02    0.662E-02
DAV:  11    -0.927841993813E+03   -0.32327E-04   -0.97317E-05  2392   0.120E-02    0.520E-02
DAV:  12    -0.927841997418E+03   -0.36053E-05   -0.85761E-05  2520   0.140E-02    0.218E-02
DAV:  13    -0.927842059155E+03   -0.61737E-04   -0.65940E-05  2256   0.797E-03    0.114E-02
DAV:  14    -0.927842080058E+03   -0.20903E-04   -0.17783E-05  1800   0.467E-03    0.102E-02
DAV:  15    -0.927842130850E+03   -0.50792E-04   -0.57257E-06  1624   0.362E-03    0.639E-03
DAV:  16    -0.927842164617E+03   -0.33767E-04   -0.10679E-05  1808   0.381E-03    0.597E-03
DAV:  17    -0.927842180585E+03   -0.15967E-04   -0.16311E-06  1344   0.223E-03    0.417E-03
DAV:  18    -0.927842189192E+03   -0.86079E-05   -0.20652E-06  1272   0.183E-03    0.181E-03
DAV:  19    -0.927842191928E+03   -0.27354E-05   -0.79914E-07  1168   0.101E-03
   2 F= -.10005267E+04 E0= -.10004970E+04  d E =-.360117E+00
 trial-energy change:   -0.360117  1 .order   -0.357419   -0.382219   -0.332619
 step:   3.9356(harm=  7.7061)  dis= 0.08492  next Energy= -1001.083176 (dE=-0.917E+00)
 bond charge predicted
       N       E                     dE             d eps       ncg     rms          rms(c)
DAV:   1    -0.926477159996E+03    0.13650E+01   -0.29780E+02  2208   0.227E+01    0.225E+01
DAV:   2    -0.928726159337E+03   -0.22490E+01   -0.25925E+01  2320   0.435E+00    0.838E+00
DAV:   3    -0.928681342214E+03    0.44817E-01   -0.10754E+00  2576   0.282E+00    0.528E+00
DAV:   4    -0.928485081623E+03    0.19626E+00   -0.78886E-01  2544   0.188E+00    0.432E+00
DAV:   5    -0.928394012506E+03    0.91069E-01   -0.32178E-01  2664   0.143E+00    0.202E+00
DAV:   6    -0.928405857369E+03   -0.11845E-01   -0.33846E-01  2384   0.646E-01    0.236E+00
DAV:   7    -0.928397592184E+03    0.82652E-02   -0.20121E-02  2520   0.283E-01    0.241E+00
DAV:   8    -0.928397534569E+03    0.57616E-04   -0.26981E-02  2608   0.165E-01    0.215E+00
DAV:   9    -0.928394398789E+03    0.31358E-02   -0.24413E-02  3432   0.285E-01    0.239E-01
DAV:  10    -0.928395027380E+03   -0.62859E-03   -0.27578E-02  2512   0.176E-01    0.383E-01
DAV:  11    -0.928393709125E+03    0.13183E-02   -0.24178E-03  2584   0.109E-01    0.294E-01
DAV:  12    -0.928393450791E+03    0.25833E-03   -0.71630E-03  2920   0.114E-01    0.116E-01
DAV:  13    -0.928393764163E+03   -0.31337E-03   -0.15171E-03  2472   0.796E-02    0.120E-01
DAV:  14    -0.928393908369E+03   -0.14421E-03   -0.47455E-04  2176   0.212E-02    0.904E-02
DAV:  15    -0.928394009497E+03   -0.10113E-03   -0.73833E-04  2928   0.608E-02    0.300E-02
DAV:  16    -0.928394298053E+03   -0.28856E-03   -0.15687E-03  2352   0.296E-02    0.110E-01
DAV:  17    -0.928394446401E+03   -0.14835E-03   -0.46212E-05  2376   0.847E-03    0.838E-02
DAV:  18    -0.928394423177E+03    0.23223E-04   -0.13381E-04  2832   0.267E-02    0.463E-02
DAV:  19    -0.928394463750E+03   -0.40573E-04   -0.31764E-04  2240   0.145E-02    0.128E-02
DAV:  20    -0.928394486112E+03   -0.22362E-04   -0.19452E-05  2304   0.686E-03    0.396E-03
DAV:  21    -0.928394563108E+03   -0.76996E-04   -0.32341E-05  2008   0.468E-03    0.102E-02
DAV:  22    -0.928394595130E+03   -0.32022E-04   -0.29054E-06  1520   0.317E-03    0.130E-02
DAV:  23    -0.928394608262E+03   -0.13132E-04   -0.24987E-06  1320   0.186E-03    0.142E-02
DAV:  24    -0.928394619987E+03   -0.11726E-04   -0.22702E-06  1400   0.393E-03    0.826E-03
DAV:  25    -0.928394627887E+03   -0.79003E-05   -0.15715E-05  1752   0.439E-03    0.341E-03
DAV:  26    -0.928394631647E+03   -0.37593E-05   -0.25377E-06  1280   0.183E-03
   3 F= -.10011121E+04 E0= -.10010796E+04  d E =-.945488E+00
 curvature:  -2.64 expect dE=-0.151E+00 dE for cont linesearch -0.129E-01
 ZBRENT: extrapolating
 opt :   4.3747  next Energy= -1001.121576 (dE=-0.955E+00)
 bond charge predicted
       N       E                     dE             d eps       ncg     rms          rms(c)
DAV:   1    -0.928353523864E+03    0.41104E-01   -0.65995E+00  2088   0.318E+00    0.169E+00
DAV:   2    -0.928401129931E+03   -0.47606E-01   -0.51918E-01  2344   0.619E-01    0.766E-01
DAV:   3    -0.928398643887E+03    0.24860E-02   -0.10650E-02  2596   0.337E-01    0.476E-01
DAV:   4    -0.928398341257E+03    0.30263E-03   -0.13423E-02  2496   0.257E-01    0.343E-01
DAV:   5    -0.928395511059E+03    0.28302E-02   -0.46985E-03  2600   0.183E-01    0.164E-01
DAV:   6    -0.928395811077E+03   -0.30002E-03   -0.40336E-03  2424   0.979E-02    0.153E-01
DAV:   7    -0.928395307419E+03    0.50366E-03   -0.13472E-03  2888   0.919E-02    0.132E-01
DAV:   8    -0.928395411729E+03   -0.10431E-03   -0.16838E-03  2440   0.422E-02    0.837E-02
DAV:   9    -0.928395294972E+03    0.11676E-03   -0.31320E-04  2464   0.362E-02    0.544E-02
DAV:  10    -0.928395302227E+03   -0.72547E-05   -0.40126E-04  2432   0.210E-02    0.323E-02
DAV:  11    -0.928395316786E+03   -0.14560E-04   -0.82086E-05  2696   0.114E-02    0.198E-02
DAV:  12    -0.928395323063E+03   -0.62767E-05   -0.30720E-05  1848   0.582E-03    0.213E-02
DAV:  13    -0.928395325310E+03   -0.22472E-05   -0.41105E-06  1416   0.372E-03
   4 F= -.10011177E+04 E0= -.10010848E+04  d E =-.951115E+00
 curvature:  -1.94 expect dE=-0.149E+00 dE for cont linesearch -0.187E-02
 ZBRENT: bracketing found
 ZBRENT: interpolating
 opt :   4.2397  next Energy= -1001.118999 (dE=-0.952E+00)
 bond charge predicted
       N       E                     dE             d eps       ncg     rms          rms(c)
DAV:   1    -0.928394412136E+03    0.91093E-03   -0.62503E-01  2096   0.966E-01    0.410E-01
DAV:   2    -0.928398415431E+03   -0.40033E-02   -0.43181E-02  2352   0.163E-01    0.193E-01
DAV:   3    -0.928398347902E+03    0.67529E-04   -0.74018E-04  2624   0.861E-02    0.129E-01
DAV:   4    -0.928398231433E+03    0.11647E-03   -0.88231E-04  2504   0.687E-02    0.967E-02
DAV:   5    -0.928398056095E+03    0.17534E-03   -0.30329E-04  2552   0.430E-02    0.513E-02
DAV:   6    -0.928398113880E+03   -0.57785E-04   -0.34485E-04  2416   0.301E-02    0.384E-02
DAV:   7    -0.928398043032E+03    0.70848E-04   -0.15445E-04  2472   0.262E-02    0.245E-02
DAV:   8    -0.928398049669E+03   -0.66373E-05   -0.93075E-05  2464   0.109E-02    0.154E-02
DAV:   9    -0.928398046501E+03    0.31679E-05   -0.16472E-05  2024   0.756E-03
   5 F= -.10011189E+04 E0= -.10010861E+04  d E =-.952319E+00
 curvature:  -1.34 expect dE=-0.914E-01 dE for cont linesearch -0.358E-05
 trial: gam= 0.17537 g(F)=  0.680E-01 g(S)=  0.000E+00 ort = 0.101E-02 (trialstep = 0.165E+01)
 search vector abs. value=  0.801E-01
 bond charge predicted
       N       E                     dE             d eps       ncg     rms          rms(c)
DAV:   1    -0.928426079212E+03   -0.28030E-01   -0.90890E+00  2128   0.384E+00    0.153E+00
DAV:   2    -0.928473782770E+03   -0.47704E-01   -0.51305E-01  2544   0.670E-01    0.827E-01
DAV:   3    -0.928473780639E+03    0.21305E-05   -0.89569E-03  2808   0.103E-01    0.659E-01
DAV:   4    -0.928479278225E+03   -0.54976E-02   -0.14879E-03  3232   0.184E-01    0.468E-01
DAV:   5    -0.928472969179E+03    0.63090E-02   -0.26598E-03  3032   0.184E-01    0.904E-02
DAV:   6    -0.928473292892E+03   -0.32371E-03   -0.30746E-03  2360   0.515E-02    0.116E-01
DAV:   7    -0.928473249879E+03    0.43012E-04   -0.15955E-04  2656   0.196E-02    0.106E-01
DAV:   8    -0.928473207946E+03    0.41933E-04   -0.70830E-05  2384   0.144E-02    0.739E-02
DAV:   9    -0.928473173538E+03    0.34408E-04   -0.15800E-04  2648   0.184E-02    0.150E-02
DAV:  10    -0.928473180063E+03   -0.65247E-05   -0.10932E-04  2360   0.104E-02    0.106E-02
DAV:  11    -0.928473180039E+03    0.23661E-07   -0.52299E-06  1432   0.382E-03
   6 F= -.10012205E+04 E0= -.10011872E+04  d E =-.101559E+00
 ZBRENT: can't locate minimum, use default step
 trial-energy change:   -0.101559  1 .order   -0.101479   -0.112417   -0.090541
 step:   6.5918(harm=  8.4685)  dis= 0.09458  next Energy= -1001.407752 (dE=-0.289E+00)
 bond charge predicted
       N       E                     dE             d eps       ncg     rms          rms(c)
DAV:   1    -0.928106755107E+03    0.36642E+00   -0.83548E+01  2136   0.118E+01    0.624E+00
DAV:   2    -0.928577122798E+03   -0.47037E+00   -0.50653E+00  2416   0.220E+00    0.316E+00
DAV:   3    -0.928579209617E+03   -0.20868E-02   -0.11072E-01  2872   0.316E-01    0.239E+00
DAV:   4    -0.928582926431E+03   -0.37168E-02   -0.12097E-02  2680   0.284E-01    0.174E+00
DAV:   5    -0.928580551375E+03    0.23751E-02   -0.81422E-03  2848   0.413E-01    0.129E+00
DAV:   6    -0.928574234091E+03    0.63173E-02   -0.30191E-02  2504   0.298E-01    0.373E-01
DAV:   7    -0.928573561587E+03    0.67250E-03   -0.11871E-02  2528   0.150E-01    0.351E-01
DAV:   8    -0.928572893715E+03    0.66787E-03   -0.11458E-02  2528   0.127E-01    0.196E-01
DAV:   9    -0.928572927574E+03   -0.33859E-04   -0.13973E-03  2456   0.617E-02    0.182E-01
DAV:  10    -0.928572943772E+03   -0.16198E-04   -0.97143E-04  2944   0.631E-02    0.158E-01
DAV:  11    -0.928572953271E+03   -0.94987E-05   -0.11066E-03  2368   0.321E-02    0.129E-01
DAV:  12    -0.928572919781E+03    0.33489E-04   -0.19343E-04  2424   0.170E-02    0.108E-01
DAV:  13    -0.928572847679E+03    0.72102E-04   -0.24574E-04  2904   0.216E-02    0.619E-02
DAV:  14    -0.928572851107E+03   -0.34274E-05   -0.89508E-05  2136   0.889E-03    0.424E-02
DAV:  15    -0.928572841006E+03    0.10100E-04   -0.57243E-05  2600   0.148E-02    0.195E-02
DAV:  16    -0.928572859674E+03   -0.18667E-04   -0.81232E-05  2024   0.716E-03    0.278E-03
DAV:  17    -0.928572870810E+03   -0.11136E-04   -0.30161E-06  1376   0.248E-03    0.457E-03
DAV:  18    -0.928572889526E+03   -0.18716E-04   -0.25888E-06  1408   0.173E-03    0.495E-03
DAV:  19    -0.928572894011E+03   -0.44849E-05   -0.46424E-07  1200   0.104E-03
   7 F= -.10013996E+04 E0= -.10013647E+04  d E =-.280709E+00
 curvature:  -4.60 expect dE=-0.609E-01 dE for cont linesearch -0.234E-01
 ZBRENT: increasing intervall
 opt :  16.4794  next Energy= -1001.255660 (dE=-0.137E+00)
 bond charge predicted
       N       E                     dE             d eps       ncg     rms          rms(c)
DAV:   1    -0.926487095378E+03    0.20858E+01   -0.34419E+02  2184   0.248E+01    0.151E+01
DAV:   2    -0.928287046524E+03   -0.18000E+01   -0.19403E+01  2288   0.448E+00    0.724E+00
DAV:   3    -0.928308591196E+03   -0.21545E-01   -0.65357E-01  2720   0.781E-01    0.517E+00
DAV:   4    -0.928291983396E+03    0.16608E-01   -0.53678E-02  2784   0.437E-01    0.456E+00
DAV:   5    -0.928334706656E+03   -0.42723E-01   -0.73606E-02  2736   0.694E-01    0.372E+00
DAV:   6    -0.928279781969E+03    0.54925E-01   -0.11331E-01  2520   0.870E-01    0.885E-01
DAV:   7    -0.928287612546E+03   -0.78306E-02   -0.11278E-01  2336   0.329E-01    0.104E+00
DAV:   8    -0.928278245309E+03    0.93672E-02   -0.16717E-02  2640   0.275E-01    0.759E-01
DAV:   9    -0.928277391975E+03    0.85333E-03   -0.22061E-02  2384   0.139E-01    0.459E-01
DAV:  10    -0.928278211764E+03   -0.81979E-03   -0.10669E-03  2488   0.690E-02    0.454E-01
DAV:  11    -0.928276977138E+03    0.12346E-02   -0.98784E-04  2480   0.609E-02    0.368E-01
DAV:  12    -0.928275817092E+03    0.11600E-02   -0.34635E-03  2736   0.913E-02    0.228E-01
DAV:  13    -0.928275921810E+03   -0.10472E-03   -0.19912E-03  2464   0.376E-02    0.145E-01
DAV:  14    -0.928275827411E+03    0.94398E-04   -0.16945E-04  3040   0.212E-02    0.114E-01
DAV:  15    -0.928275835426E+03   -0.80149E-05   -0.16508E-04  2208   0.105E-02    0.802E-02
DAV:  16    -0.928275840326E+03   -0.49004E-05   -0.56145E-05  2600   0.145E-02    0.497E-02
DAV:  17    -0.928275860924E+03   -0.20597E-04   -0.17711E-04  2664   0.147E-02    0.805E-03
DAV:  18    -0.928275874590E+03   -0.13667E-04   -0.19167E-05  1896   0.469E-03    0.625E-03
DAV:  19    -0.928275887600E+03   -0.13009E-04   -0.19943E-06  1352   0.253E-03    0.632E-03
DAV:  20    -0.928275912951E+03   -0.25351E-04   -0.80940E-06  1776   0.312E-03    0.922E-03
DAV:  21    -0.928275915076E+03   -0.21253E-05   -0.18659E-06  1232   0.205E-03
   8 F= -.10012621E+04 E0= -.10012252E+04  d E =-.143153E+00
 curvature:  28.30 expect dE= 0.345E+01 dE for cont linesearch  0.861E+00
 ZBRENT: bracketing found
 ZBRENT: interpolating
 opt :   9.4608  next Energy= -1001.428579 (dE=-0.310E+00)
 bond charge predicted
       N       E                     dE             d eps       ncg     rms          rms(c)
DAV:   1    -0.927582026185E+03    0.69389E+00   -0.16550E+02  2048   0.171E+01    0.686E+00
DAV:   2    -0.928683102181E+03   -0.11011E+01   -0.12905E+01  2736   0.340E+00    0.387E+00
DAV:   3    -0.928625358464E+03    0.57744E-01   -0.47761E-01  2600   0.175E+00    0.286E+00
DAV:   4    -0.928584597082E+03    0.40761E-01   -0.28577E-01  2488   0.986E-01    0.226E+00
DAV:   5    -0.928560112317E+03    0.24485E-01   -0.10636E-01  2856   0.855E-01    0.134E+00
DAV:   6    -0.928561758764E+03   -0.16464E-02   -0.18976E-01  2376   0.510E-01    0.111E+00
DAV:   7    -0.928558627268E+03    0.31315E-02   -0.18321E-02  2872   0.378E-01    0.108E+00
DAV:   8    -0.928566011385E+03   -0.73841E-02   -0.47895E-02  2376   0.241E-01    0.778E-01
DAV:   9    -0.928560020912E+03    0.59905E-02   -0.11072E-02  2656   0.281E-01    0.307E-01
DAV:  10    -0.928560709513E+03   -0.68860E-03   -0.23578E-02  2432   0.179E-01    0.122E-01
DAV:  11    -0.928560854561E+03   -0.14505E-03   -0.20841E-03  2552   0.637E-02    0.863E-02
DAV:  12    -0.928560965728E+03   -0.11117E-03   -0.17310E-04  3072   0.370E-02    0.908E-02
DAV:  13    -0.928560800828E+03    0.16490E-03   -0.21202E-04  2640   0.461E-02    0.297E-02
DAV:  14    -0.928560872357E+03   -0.71529E-04   -0.86086E-04  2392   0.307E-02    0.345E-02
DAV:  15    -0.928560869825E+03    0.25314E-05   -0.74419E-05  2208   0.102E-02    0.384E-02
DAV:  16    -0.928560868171E+03    0.16547E-05   -0.75928E-06  1528   0.454E-03
   9 F= -.10014338E+04 E0= -.10013980E+04  d E =-.314878E+00
 curvature:  -0.95 expect dE=-0.201E-01 dE for cont linesearch -0.802E-04
 trial: gam= 0.37736 g(F)=  0.211E-01 g(S)=  0.000E+00 ort = 0.260E-02 (trialstep = 0.321E+01)
 search vector abs. value=  0.345E-01
 bond charge predicted
       N       E                     dE             d eps       ncg     rms          rms(c)
DAV:   1    -0.928470502864E+03    0.90367E-01   -0.16134E+01  2080   0.512E+00    0.244E+00
DAV:   2    -0.928569242300E+03   -0.98739E-01   -0.10805E+00  2272   0.966E-01    0.105E+00
DAV:   3    -0.928566241060E+03    0.30012E-02   -0.23616E-02  2688   0.276E-01    0.708E-01
DAV:   4    -0.928566746217E+03   -0.50516E-03   -0.14310E-02  2416   0.190E-01    0.513E-01
DAV:   5    -0.928570763371E+03   -0.40172E-02   -0.32413E-03  2768   0.267E-01    0.350E-01
DAV:   6    -0.928564686026E+03    0.60773E-02   -0.80527E-03  2680   0.203E-01    0.231E-01
DAV:   7    -0.928564369674E+03    0.31635E-03   -0.13420E-03  2536   0.740E-02    0.205E-01
DAV:   8    -0.928564404422E+03   -0.34748E-04   -0.18645E-03  2560   0.511E-02    0.762E-02
DAV:   9    -0.928564475658E+03   -0.71236E-04   -0.84377E-04  2536   0.260E-02    0.377E-02
DAV:  10    -0.928564467231E+03    0.84270E-05   -0.51268E-05  2496   0.158E-02    0.267E-02
DAV:  11    -0.928564477999E+03   -0.10769E-04   -0.15367E-04  2672   0.190E-02    0.238E-02
DAV:  12    -0.928564474177E+03    0.38223E-05   -0.42617E-05  2080   0.129E-02
  10 F= -.10014919E+04 E0= -.10014553E+04  d E =-.581568E-01
 trial-energy change:   -0.058157  1 .order   -0.058222   -0.070960   -0.045484
 step:   8.9424(harm=  8.9424)  dis= 0.01827  next Energy= -1001.532608 (dE=-0.988E-01)
 bond charge predicted
       N       E                     dE             d eps       ncg     rms          rms(c)
DAV:   1    -0.928200014611E+03    0.36446E+00   -0.52013E+01  2080   0.922E+00    0.493E+00
DAV:   2    -0.928523150806E+03   -0.32314E+00   -0.35388E+00  2264   0.177E+00    0.208E+00
DAV:   3    -0.928513289584E+03    0.98612E-02   -0.90917E-02  2672   0.521E-01    0.140E+00
DAV:   4    -0.928512089303E+03    0.12003E-02   -0.41528E-02  2464   0.327E-01    0.107E+00
DAV:   5    -0.928528419057E+03   -0.16330E-01   -0.12810E-02  2776   0.518E-01    0.711E-01
DAV:   6    -0.928507341679E+03    0.21077E-01   -0.42029E-02  2640   0.400E-01    0.489E-01
DAV:   7    -0.928506032910E+03    0.13088E-02   -0.59844E-03  2464   0.134E-01    0.473E-01
DAV:   8    -0.928505943581E+03    0.89329E-04   -0.54312E-03  2616   0.867E-02    0.265E-01
DAV:   9    -0.928506143898E+03   -0.20032E-03   -0.36537E-03  2832   0.751E-02    0.608E-02
DAV:  10    -0.928506267937E+03   -0.12404E-03   -0.11798E-03  2392   0.373E-02    0.837E-02
DAV:  11    -0.928506224104E+03    0.43833E-04   -0.10024E-04  2568   0.248E-02    0.499E-02
DAV:  12    -0.928506252011E+03   -0.27907E-04   -0.37955E-04  2792   0.293E-02    0.180E-02
DAV:  13    -0.928506267256E+03   -0.15245E-04   -0.10798E-04  2104   0.169E-02    0.163E-02
DAV:  14    -0.928506278949E+03   -0.11693E-04   -0.49873E-05  2176   0.993E-03    0.669E-03
DAV:  15    -0.928506288850E+03   -0.99005E-05   -0.75526E-06  1432   0.527E-03    0.282E-03
DAV:  16    -0.928506324824E+03   -0.35974E-04   -0.86780E-06  1648   0.381E-03    0.486E-03
DAV:  17    -0.928506333729E+03   -0.89053E-05   -0.14994E-06  1400   0.391E-03    0.227E-03
DAV:  18    -0.928506341936E+03   -0.82075E-05   -0.51253E-06  1456   0.388E-03    0.550E-03
DAV:  19    -0.928506348112E+03   -0.61755E-05   -0.18332E-06  1304   0.237E-03    0.476E-03
DAV:  20    -0.928506352190E+03   -0.40783E-05   -0.18180E-06  1400   0.290E-03
  11 F= -.10015314E+04 E0= -.10014932E+04  d E =-.976306E-01
 curvature:  -6.98 expect dE=-0.223E+00 dE for cont linesearch -0.113E-03
 trial: gam= 1.54887 g(F)=  0.320E-01 g(S)=  0.000E+00 ort = 0.747E-03 (trialstep = 0.128E+01)
 search vector abs. value=  0.117E+00
 bond charge predicted
       N       E                     dE             d eps       ncg     rms          rms(c)
DAV:   1    -0.928492602669E+03    0.13745E-01   -0.11620E+00  2180   0.150E+00    0.461E-01
DAV:   2    -0.928501006381E+03   -0.84037E-02   -0.88649E-02  2488   0.300E-01    0.265E-01
DAV:   3    -0.928502326643E+03   -0.13203E-02   -0.37187E-03  2768   0.160E-01    0.237E-01
DAV:   4    -0.928500430119E+03    0.18965E-02   -0.15909E-03  2616   0.118E-01    0.190E-01
DAV:   5    -0.928500467413E+03   -0.37294E-04   -0.95720E-04  2544   0.606E-02    0.153E-01
DAV:   6    -0.928500323378E+03    0.14403E-03   -0.10615E-03  2504   0.512E-02    0.100E-01
DAV:   7    -0.928500380387E+03   -0.57009E-04   -0.22747E-04  2472   0.270E-02    0.305E-02
DAV:   8    -0.928500371058E+03    0.93290E-05   -0.12849E-04  2560   0.212E-02    0.164E-02
DAV:   9    -0.928500376080E+03   -0.50215E-05   -0.10801E-04  2736   0.170E-02    0.211E-02
DAV:  10    -0.928500379468E+03   -0.33880E-05   -0.43940E-05  1912   0.613E-03
  12 F= -.10015714E+04 E0= -.10015325E+04  d E =-.399385E-01
 ZBRENT: can't locate minimum, use default step
 trial-energy change:   -0.039938  1 .order   -0.039870   -0.042542   -0.037197
 step:   5.1365(harm= 10.2215)  dis= 0.02148  next Energy= -1001.700730 (dE=-0.169E+00)
 bond charge predicted
       N       E                     dE             d eps       ncg     rms          rms(c)
DAV:   1    -0.928379887028E+03    0.12049E+00   -0.10481E+01  2188   0.450E+00    0.150E+00
DAV:   2    -0.928455070431E+03   -0.75183E-01   -0.78437E-01  2504   0.915E-01    0.808E-01
DAV:   3    -0.928467927662E+03   -0.12857E-01   -0.32913E-02  2752   0.462E-01    0.718E-01
DAV:   4    -0.928451297779E+03    0.16630E-01   -0.13215E-02  2624   0.349E-01    0.594E-01
DAV:   5    -0.928451573804E+03   -0.27603E-03   -0.82584E-03  2544   0.174E-01    0.481E-01
DAV:   6    -0.928450332711E+03    0.12411E-02   -0.80450E-03  2520   0.143E-01    0.310E-01
DAV:   7    -0.928450696799E+03   -0.36409E-03   -0.21690E-03  2512   0.736E-02    0.666E-02
DAV:   8    -0.928450611638E+03    0.85161E-04   -0.10451E-03  2520   0.540E-02    0.508E-02
DAV:   9    -0.928450636452E+03   -0.24814E-04   -0.62230E-04  2792   0.411E-02    0.715E-02
DAV:  10    -0.928450656593E+03   -0.20142E-04   -0.25477E-04  2368   0.153E-02    0.761E-02
DAV:  11    -0.928450651516E+03    0.50773E-05   -0.13314E-05  1752   0.999E-03    0.561E-02
DAV:  12    -0.928450680143E+03   -0.28627E-04   -0.13931E-04  2640   0.199E-02    0.197E-02
DAV:  13    -0.928450707401E+03   -0.27259E-04   -0.11156E-04  2040   0.826E-03    0.215E-02
DAV:  14    -0.928450720835E+03   -0.13433E-04   -0.49117E-06  1480   0.341E-03    0.185E-02
DAV:  15    -0.928450746531E+03   -0.25697E-04   -0.11903E-05  1872   0.362E-03    0.104E-02
DAV:  16    -0.928450765715E+03   -0.19183E-04   -0.40760E-06  1584   0.308E-03    0.467E-03
DAV:  17    -0.928450778003E+03   -0.12288E-04   -0.80956E-06  1672   0.264E-03    0.449E-03
DAV:  18    -0.928450786842E+03   -0.88388E-05   -0.16527E-06  1360   0.131E-03    0.473E-03
DAV:  19    -0.928450790397E+03   -0.35554E-05   -0.63189E-07  1248   0.136E-03
  13 F= -.10016599E+04 E0= -.10016187E+04  d E =-.128520E+00
 curvature: -12.21 expect dE=-0.115E+00 dE for cont linesearch -0.293E-01
 ZBRENT: increasing intervall
 opt :  12.8411  next Energy= -1001.694977 (dE=-0.164E+00)
 bond charge predicted
       N       E                     dE             d eps       ncg     rms          rms(c)
DAV:   1    -0.927928446316E+03    0.52234E+00   -0.42007E+01  2188   0.912E+00    0.337E+00
DAV:   2    -0.928216378904E+03   -0.28793E+00   -0.30254E+00  2464   0.185E+00    0.177E+00
DAV:   3    -0.928271301296E+03   -0.54922E-01   -0.13141E-01  2736   0.892E-01    0.154E+00
DAV:   4    -0.928205760994E+03    0.65540E-01   -0.49945E-02  2632   0.690E-01    0.132E+00
DAV:   5    -0.928206529882E+03   -0.76889E-03   -0.29754E-02  2624   0.328E-01    0.107E+00
DAV:   6    -0.928201211645E+03    0.53182E-02   -0.25456E-02  2504   0.263E-01    0.662E-01
DAV:   7    -0.928201830918E+03   -0.61927E-03   -0.96517E-03  2512   0.140E-01    0.997E-02
DAV:   8    -0.928201838849E+03   -0.79313E-05   -0.41066E-03  2416   0.848E-02    0.140E-01
DAV:   9    -0.928201892632E+03   -0.53783E-04   -0.11361E-03  2776   0.478E-02    0.139E-01
DAV:  10    -0.928201848055E+03    0.44576E-04   -0.24714E-04  2520   0.356E-02    0.916E-02
DAV:  11    -0.928201931951E+03   -0.83896E-04   -0.55442E-04  2624   0.311E-02    0.512E-02
DAV:  12    -0.928201946458E+03   -0.14507E-04   -0.12459E-04  2296   0.173E-02    0.295E-02
DAV:  13    -0.928201999988E+03   -0.53530E-04   -0.89528E-05  2616   0.115E-02    0.668E-03
DAV:  14    -0.928202049177E+03   -0.49189E-04   -0.14102E-05  1808   0.515E-03    0.715E-03
DAV:  15    -0.928202117267E+03   -0.68090E-04   -0.78800E-06  1656   0.326E-03    0.747E-03
DAV:  16    -0.928202154329E+03   -0.37062E-04   -0.50040E-06  1632   0.217E-03    0.762E-03
DAV:  17    -0.928202176776E+03   -0.22446E-04   -0.28573E-06  1472   0.324E-03    0.453E-03
DAV:  18    -0.928202195633E+03   -0.18858E-04   -0.14379E-05  1960   0.541E-03    0.615E-03
DAV:  19    -0.928202202717E+03   -0.70839E-05   -0.57272E-06  1576   0.263E-03    0.891E-03
DAV:  20    -0.928202204655E+03   -0.19375E-05   -0.56295E-07  1176   0.111E-03
  14 F= -.10016897E+04 E0= -.10016376E+04  d E =-.158252E+00
 curvature: -14.61 expect dE=-0.483E+00 dE for cont linesearch -0.109E-01
 ZBRENT: bracketing found
 ZBRENT: interpolating
 opt :  10.0796  next Energy= -1001.702592 (dE=-0.171E+00)
 bond charge predicted
       N       E                     dE             d eps       ncg     rms          rms(c)
DAV:   1    -0.928280259878E+03   -0.78057E-01   -0.53128E+00  2180   0.326E+00    0.982E-01
DAV:   2    -0.928319137423E+03   -0.38878E-01   -0.42888E-01  2528   0.672E-01    0.574E-01
DAV:   3    -0.928326029452E+03   -0.68920E-02   -0.19196E-02  2696   0.401E-01    0.513E-01
DAV:   4    -0.928315492652E+03    0.10537E-01   -0.90322E-03  2624   0.278E-01    0.380E-01
DAV:   5    -0.928315485270E+03    0.73820E-05   -0.46347E-03  2544   0.138E-01    0.303E-01
DAV:   6    -0.928314854394E+03    0.63088E-03   -0.60269E-03  2472   0.116E-01    0.197E-01
DAV:   7    -0.928314942134E+03   -0.87740E-04   -0.10011E-03  2528   0.667E-02    0.951E-02
DAV:   8    -0.928314833397E+03    0.10874E-03   -0.75047E-04  2512   0.482E-02    0.498E-02
DAV:   9    -0.928314786804E+03    0.46593E-04   -0.53119E-04  2880   0.442E-02    0.295E-02
DAV:  10    -0.928314822885E+03   -0.36081E-04   -0.40428E-04  2384   0.177E-02    0.513E-02
DAV:  11    -0.928314825739E+03   -0.28536E-05   -0.12757E-05  1888   0.496E-03
  15 F= -.10017022E+04 E0= -.10016552E+04  d E =-.170817E+00
 curvature: -17.26 expect dE=-0.313E+00 dE for cont linesearch -0.518E-05
 trial: gam= 0.70112 g(F)=  0.181E-01 g(S)=  0.000E+00 ort = 0.187E-03 (trialstep = 0.304E+01)
 search vector abs. value=  0.759E-01
 bond charge predicted
       N       E                     dE             d eps       ncg     rms          rms(c)
DAV:   1    -0.928252248598E+03    0.62574E-01   -0.35574E+00  2192   0.269E+00    0.102E+00
DAV:   2    -0.928276838026E+03   -0.24589E-01   -0.24929E-01  2256   0.546E-01    0.372E-01
DAV:   3    -0.928279921105E+03   -0.30831E-02   -0.26623E-02  2576   0.297E-01    0.308E-01
DAV:   4    -0.928275617811E+03    0.43033E-02   -0.65837E-03  2640   0.221E-01    0.228E-01
DAV:   5    -0.928274432624E+03    0.11852E-02   -0.29614E-03  2840   0.134E-01    0.179E-01
DAV:   6    -0.928273956545E+03    0.47608E-03   -0.17029E-03  2352   0.862E-02    0.642E-02
DAV:   7    -0.928274035322E+03   -0.78776E-04   -0.10129E-03  2472   0.410E-02    0.443E-02
DAV:   8    -0.928274029952E+03    0.53693E-05   -0.19299E-04  2520   0.204E-02    0.264E-02
DAV:   9    -0.928274043304E+03   -0.13352E-04   -0.41388E-05  2448   0.954E-03    0.146E-02
DAV:  10    -0.928274045248E+03   -0.19441E-05   -0.14955E-05  1840   0.626E-03
  16 F= -.10017480E+04 E0= -.10016965E+04  d E =-.457614E-01
 trial-energy change:   -0.045761  1 .order   -0.045449   -0.055619   -0.035278
 step:   7.3583(harm=  8.3211)  dis= 0.02951  next Energy= -1001.773895 (dE=-0.717E-01)
 bond charge predicted
       N       E                     dE             d eps       ncg     rms          rms(c)
DAV:   1    -0.928136275569E+03    0.13777E+00   -0.72044E+00  2192   0.381E+00    0.149E+00
DAV:   2    -0.928185645293E+03   -0.49370E-01   -0.50459E-01  2240   0.772E-01    0.541E-01
DAV:   3    -0.928192020595E+03   -0.63753E-02   -0.52750E-02  2552   0.409E-01    0.441E-01
DAV:   4    -0.928183532244E+03    0.84884E-02   -0.12484E-02  2664   0.305E-01    0.333E-01
DAV:   5    -0.928181314600E+03    0.22176E-02   -0.57029E-03  2816   0.184E-01    0.264E-01
DAV:   6    -0.928180360396E+03    0.95420E-03   -0.36736E-03  2384   0.126E-01    0.868E-02
DAV:   7    -0.928180532802E+03   -0.17241E-03   -0.21308E-03  2448   0.602E-02    0.670E-02
DAV:   8    -0.928180523675E+03    0.91269E-05   -0.39624E-04  2520   0.298E-02    0.401E-02
DAV:   9    -0.928180560735E+03   -0.37061E-04   -0.81767E-05  2544   0.152E-02    0.251E-02
DAV:  10    -0.928180576085E+03   -0.15350E-04   -0.37887E-05  2144   0.948E-03    0.188E-02
DAV:  11    -0.928180591633E+03   -0.15548E-04   -0.26182E-05  2016   0.101E-02    0.130E-02
DAV:  12    -0.928180600698E+03   -0.90650E-05   -0.30434E-05  1848   0.489E-03    0.131E-02
DAV:  13    -0.928180605611E+03   -0.49127E-05   -0.18283E-06  1192   0.207E-03
  17 F= -.10017778E+04 E0= -.10017181E+04  d E =-.755304E-01
 curvature: -16.71 expect dE=-0.165E+00 dE for cont linesearch -0.996E-03
 ZBRENT: extrapolating
 opt :   8.3284  next Energy= -1001.778793 (dE=-0.766E-01)
 bond charge predicted
       N       E                     dE             d eps       ncg     rms          rms(c)
DAV:   1    -0.928151685035E+03    0.28916E-01   -0.36488E-01  2192   0.850E-01    0.301E-01
DAV:   2    -0.928154132866E+03   -0.24478E-02   -0.24772E-02  2224   0.171E-01    0.112E-01
DAV:   3    -0.928154482114E+03   -0.34925E-03   -0.26720E-03  2584   0.920E-02    0.951E-02
DAV:   4    -0.928154037499E+03    0.44462E-03   -0.64344E-04  2672   0.705E-02    0.706E-02
DAV:   5    -0.928153906551E+03    0.13095E-03   -0.30220E-04  2784   0.426E-02    0.558E-02
DAV:   6    -0.928153871611E+03    0.34941E-04   -0.17159E-04  2344   0.254E-02    0.186E-02
DAV:   7    -0.928153887237E+03   -0.15626E-04   -0.10140E-04  2408   0.120E-02    0.118E-02
DAV:   8    -0.928153887494E+03   -0.25747E-06   -0.13842E-05  1848   0.570E-03
  18 F= -.10017788E+04 E0= -.10017171E+04  d E =-.765912E-01
 curvature: -17.31 expect dE=-0.213E+00 dE for cont linesearch -0.163E-06
 trial: gam= 0.61461 g(F)=  0.123E-01 g(S)=  0.000E+00 ort =-0.268E-04 (trialstep = 0.410E+01)
 search vector abs. value=  0.410E-01
 bond charge predicted
       N       E                     dE             d eps       ncg     rms          rms(c)
DAV:   1    -0.928072100248E+03    0.81787E-01   -0.62377E+00  2128   0.345E+00    0.985E-01
DAV:   2    -0.928112333700E+03   -0.40233E-01   -0.43018E-01  2368   0.665E-01    0.583E-01
DAV:   3    -0.928116698808E+03   -0.43651E-02   -0.21977E-02  2720   0.324E-01    0.482E-01
DAV:   4    -0.928109665070E+03    0.70337E-02   -0.64957E-03  2704   0.236E-01    0.378E-01
DAV:   5    -0.928109343565E+03    0.32150E-03   -0.37779E-03  2624   0.131E-01    0.317E-01
DAV:   6    -0.928108427978E+03    0.91559E-03   -0.49341E-03  2480   0.113E-01    0.146E-01
DAV:   7    -0.928108478899E+03   -0.50921E-04   -0.10989E-03  2696   0.579E-02    0.557E-02
DAV:   8    -0.928108533476E+03   -0.54577E-04   -0.57921E-04  2472   0.293E-02    0.336E-02
DAV:   9    -0.928108539456E+03   -0.59800E-05   -0.20880E-04  2624   0.197E-02    0.326E-02
DAV:  10    -0.928108546388E+03   -0.69316E-05   -0.43480E-05  2160   0.747E-03    0.270E-02
DAV:  11    -0.928108566308E+03   -0.19921E-04   -0.16353E-05  1776   0.767E-03    0.788E-03
DAV:  12    -0.928108581337E+03   -0.15029E-04   -0.26282E-05  1864   0.456E-03    0.491E-03
DAV:  13    -0.928108589304E+03   -0.79666E-05   -0.12694E-06  1200   0.229E-03    0.312E-03
DAV:  14    -0.928108613528E+03   -0.24224E-04   -0.62386E-06  1656   0.314E-03    0.264E-03
DAV:  15    -0.928108620655E+03   -0.71276E-05   -0.13412E-06  1336   0.270E-03    0.234E-03
DAV:  16    -0.928108626190E+03   -0.55342E-05   -0.10041E-06  1304   0.103E-03    0.159E-03
DAV:  17    -0.928108628864E+03   -0.26743E-05   -0.39173E-07  1200   0.895E-04
  19 F= -.10018103E+04 E0= -.10017417E+04  d E =-.314706E-01
 trial-energy change:   -0.031471  1 .order   -0.031595   -0.050350   -0.012840
 step:   5.5425(harm=  5.5037)  dis= 0.03715  next Energy= -1001.812545 (dE=-0.337E-01)
 bond charge predicted
       N       E                     dE             d eps       ncg     rms          rms(c)
DAV:   1    -0.928079102975E+03    0.29523E-01   -0.77063E-01  2136   0.121E+00    0.392E-01
DAV:   2    -0.928084279212E+03   -0.51762E-02   -0.55873E-02  2352   0.238E-01    0.219E-01
DAV:   3    -0.928084878861E+03   -0.59965E-03   -0.28478E-03  2720   0.125E-01    0.174E-01
DAV:   4    -0.928083894858E+03    0.98400E-03   -0.97563E-04  2680   0.892E-02    0.130E-01
DAV:   5    -0.928083880430E+03    0.14429E-04   -0.62221E-04  2592   0.530E-02    0.106E-01
DAV:   6    -0.928083730338E+03    0.15009E-03   -0.78485E-04  2488   0.440E-02    0.517E-02
DAV:   7    -0.928083738482E+03   -0.81444E-05   -0.13833E-04  2904   0.257E-02    0.296E-02
DAV:   8    -0.928083741132E+03   -0.26497E-05   -0.98074E-05  2304   0.127E-02    0.150E-02
DAV:   9    -0.928083742565E+03   -0.14333E-05   -0.45096E-05  2120   0.845E-03
  20 F= -.10018125E+04 E0= -.10017414E+04  d E =-.336360E-01
 curvature:  -9.17 expect dE=-0.375E-01 dE for cont linesearch -0.729E-05
 trial: gam= 0.35775 g(F)=  0.409E-02 g(S)=  0.000E+00 ort =-0.180E-03 (trialstep = 0.439E+01)
 search vector abs. value=  0.920E-02
 bond charge predicted
       N       E                     dE             d eps       ncg     rms          rms(c)
DAV:   1    -0.928062546539E+03    0.21195E-01   -0.53808E-01  2268   0.108E+00    0.281E-01
DAV:   2    -0.928067646615E+03   -0.51001E-02   -0.57192E-02  2552   0.268E-01    0.278E-01
DAV:   3    -0.928066591945E+03    0.10547E-02   -0.45753E-03  2568   0.147E-01    0.246E-01
DAV:   4    -0.928066312212E+03    0.27973E-03   -0.21690E-03  2528   0.763E-02    0.191E-01
DAV:   5    -0.928066345859E+03   -0.33647E-04   -0.34383E-04  2712   0.503E-02    0.172E-01
DAV:   6    -0.928066177138E+03    0.16872E-03   -0.45848E-04  2632   0.476E-02    0.126E-01
DAV:   7    -0.928066093376E+03    0.83763E-04   -0.46189E-04  2648   0.379E-02    0.328E-02
DAV:   8    -0.928066108663E+03   -0.15288E-04   -0.37856E-04  2416   0.212E-02    0.194E-02
DAV:   9    -0.928066111867E+03   -0.32033E-05   -0.38735E-05  2416   0.897E-03
  21 F= -.10018242E+04 E0= -.10017507E+04  d E =-.117099E-01
 trial-energy change:   -0.011710  1 .order   -0.011637   -0.017652   -0.005621
 step:   6.3364(harm=  6.4392)  dis= 0.01487  next Energy= -1001.825422 (dE=-0.130E-01)
 bond charge predicted
       N       E                     dE             d eps       ncg     rms          rms(c)
DAV:   1    -0.928053633855E+03    0.12475E-01   -0.10586E-01  2264   0.480E-01    0.134E-01
DAV:   2    -0.928054665915E+03   -0.10321E-02   -0.12069E-02  2576   0.123E-01    0.122E-01
DAV:   3    -0.928054466975E+03    0.19894E-03   -0.97958E-04  2568   0.676E-02    0.108E-01
DAV:   4    -0.928054414720E+03    0.52254E-04   -0.48976E-04  2496   0.351E-02    0.821E-02
DAV:   5    -0.928054415206E+03   -0.48614E-06   -0.64508E-05  2656   0.222E-02    0.740E-02
DAV:   6    -0.928054391625E+03    0.23582E-04   -0.79364E-05  2552   0.199E-02    0.558E-02
DAV:   7    -0.928054375836E+03    0.15789E-04   -0.80446E-05  2608   0.162E-02    0.166E-02
DAV:   8    -0.928054380115E+03   -0.42791E-05   -0.75325E-05  2328   0.964E-03    0.771E-03
DAV:   9    -0.928054381073E+03   -0.95772E-06   -0.73949E-06  1432   0.429E-03
  22 F= -.10018255E+04 E0= -.10017509E+04  d E =-.130206E-01
 curvature:  -7.34 expect dE=-0.109E-01 dE for cont linesearch -0.154E-05
 trial: gam= 0.34088 g(F)=  0.148E-02 g(S)=  0.000E+00 ort = 0.440E-04 (trialstep = 0.478E+01)
 search vector abs. value=  0.258E-02
 bond charge predicted
       N       E                     dE             d eps       ncg     rms          rms(c)
DAV:   1    -0.928041921995E+03    0.12458E-01   -0.10854E+00  2104   0.136E+00    0.472E-01
DAV:   2    -0.928048389241E+03   -0.64672E-02   -0.71250E-02  2336   0.247E-01    0.213E-01
DAV:   3    -0.928048137105E+03    0.25214E-03   -0.12818E-03  2760   0.655E-02    0.151E-01
DAV:   4    -0.928048705363E+03   -0.56826E-03   -0.95652E-04  2680   0.724E-02    0.116E-01
DAV:   5    -0.928048079677E+03    0.62569E-03   -0.32426E-04  2728   0.730E-02    0.567E-02
DAV:   6    -0.928048098384E+03   -0.18707E-04   -0.43858E-04  2512   0.377E-02    0.445E-02
DAV:   7    -0.928048046122E+03    0.52263E-04   -0.25680E-04  2544   0.278E-02    0.292E-02
DAV:   8    -0.928048055099E+03   -0.89779E-05   -0.78063E-05  2480   0.135E-02    0.895E-03
DAV:   9    -0.928048054832E+03    0.26783E-06   -0.31144E-05  2224   0.824E-03
  23 F= -.10018302E+04 E0= -.10017547E+04  d E =-.473062E-02
 trial-energy change:   -0.004731  1 .order   -0.004748   -0.007132   -0.002364
 step:   7.1478(harm=  7.1478)  dis= 0.01780  next Energy= -1001.830813 (dE=-0.533E-02)
 bond charge predicted
       N       E                     dE             d eps       ncg     rms          rms(c)
DAV:   1    -0.928041618408E+03    0.64367E-02   -0.26760E-01  2136   0.678E-01    0.246E-01
DAV:   2    -0.928043256047E+03   -0.16376E-02   -0.18165E-02  2320   0.125E-01    0.109E-01
DAV:   3    -0.928043197441E+03    0.58606E-04   -0.35344E-04  2720   0.362E-02    0.769E-02
DAV:   4    -0.928043286082E+03   -0.88641E-04   -0.20702E-04  2568   0.336E-02    0.599E-02
DAV:   5    -0.928043179100E+03    0.10698E-03   -0.88249E-05  2688   0.353E-02    0.293E-02
DAV:   6    -0.928043182576E+03   -0.34753E-05   -0.16033E-04  2400   0.195E-02    0.248E-02
DAV:   7    -0.928043167439E+03    0.15136E-04   -0.52001E-05  2376   0.135E-02    0.162E-02
DAV:   8    -0.928043173010E+03   -0.55705E-05   -0.29110E-05  2128   0.662E-03    0.642E-03
DAV:   9    -0.928043173139E+03   -0.12915E-06   -0.76529E-06  1536   0.447E-03
  24 F= -.10018308E+04 E0= -.10017548E+04  d E =-.533600E-02
 curvature:  -6.17 expect dE=-0.526E-02 dE for cont linesearch -0.642E-06
 trial: gam= 0.60373 g(F)=  0.853E-03 g(S)=  0.000E+00 ort = 0.164E-04 (trialstep = 0.525E+01)
 search vector abs. value=  0.181E-02
 bond charge predicted
       N       E                     dE             d eps       ncg     rms          rms(c)
DAV:   1    -0.928039512267E+03    0.36607E-02   -0.98854E-02  2248   0.442E-01    0.117E-01
DAV:   2    -0.928040540326E+03   -0.10281E-02   -0.12446E-02  2552   0.111E-01    0.135E-01
DAV:   3    -0.928040465895E+03    0.74430E-04   -0.43357E-04  2552   0.672E-02    0.120E-01
DAV:   4    -0.928040297480E+03    0.16842E-03   -0.42319E-04  2488   0.424E-02    0.956E-02
DAV:   5    -0.928040236418E+03    0.61062E-04   -0.11610E-04  2544   0.236E-02    0.718E-02
DAV:   6    -0.928040322959E+03   -0.86541E-04   -0.74308E-04  2616   0.370E-02    0.359E-02
DAV:   7    -0.928040240714E+03    0.82246E-04   -0.26882E-04  2480   0.249E-02    0.289E-02
DAV:   8    -0.928040239994E+03    0.72000E-06   -0.46572E-05  2440   0.912E-03
  25 F= -.10018334E+04 E0= -.10017570E+04  d E =-.261580E-02
 trial-energy change:   -0.002616  1 .order   -0.002567   -0.004529   -0.000605
 step:   5.9979(harm=  6.0613)  dis= 0.00704  next Energy= -1001.833474 (dE=-0.266E-02)
 bond charge predicted
       N       E                     dE             d eps       ncg     rms          rms(c)
DAV:   1    -0.928039472580E+03    0.76813E-03   -0.19789E-03  2288   0.648E-02    0.337E-02
DAV:   2    -0.928039506710E+03   -0.34129E-04   -0.57417E-04  2640   0.257E-02    0.237E-02
DAV:   3    -0.928039498726E+03    0.79837E-05   -0.46286E-05  2304   0.144E-02    0.203E-02
DAV:   4    -0.928039502063E+03   -0.33368E-05   -0.33810E-05  2160   0.881E-03    0.129E-02
DAV:   5    -0.928039498612E+03    0.34511E-05   -0.29892E-06  1616   0.575E-03    0.983E-03
DAV:   6    -0.928039500377E+03   -0.17655E-05   -0.53636E-06  1720   0.392E-03
  26 F= -.10018335E+04 E0= -.10017570E+04  d E =-.266517E-02
 curvature:  -6.33 expect dE=-0.205E-02 dE for cont linesearch -0.230E-05
 trial: gam= 0.35961 g(F)=  0.324E-03 g(S)=  0.000E+00 ort = 0.256E-04 (trialstep = 0.540E+01)
 search vector abs. value=  0.576E-03
 bond charge predicted
       N       E                     dE             d eps       ncg     rms          rms(c)
DAV:   1    -0.928039871391E+03   -0.37278E-03   -0.14371E-01  2120   0.520E-01    0.183E-01
DAV:   2    -0.928040777747E+03   -0.90636E-03   -0.10151E-02  2416   0.102E-01    0.785E-02
DAV:   3    -0.928040769083E+03    0.86645E-05   -0.41070E-04  2616   0.409E-02    0.583E-02
DAV:   4    -0.928040739387E+03    0.29695E-04   -0.16770E-04  2568   0.283E-02    0.449E-02
DAV:   5    -0.928040759011E+03   -0.19623E-04   -0.80813E-05  2664   0.266E-02    0.372E-02
DAV:   6    -0.928040701842E+03    0.57169E-04   -0.58346E-05  2456   0.205E-02    0.152E-02
DAV:   7    -0.928040706953E+03   -0.51113E-05   -0.42812E-05  2424   0.938E-03    0.102E-02
DAV:   8    -0.928040705552E+03    0.14004E-05   -0.13072E-05  1880   0.608E-03
  27 F= -.10018347E+04 E0= -.10017580E+04  d E =-.123535E-02
 trial-energy change:   -0.001235  1 .order   -0.001234   -0.001797   -0.000671
 step:   8.6188(harm=  8.6188)  dis= 0.00637  next Energy= -1001.834914 (dE=-0.143E-02)
 bond charge predicted
       N       E                     dE             d eps       ncg     rms          rms(c)
DAV:   1    -0.928040594295E+03    0.11266E-03   -0.50848E-02  2120   0.310E-01    0.110E-01
DAV:   2    -0.928040909833E+03   -0.31554E-03   -0.35546E-03  2416   0.602E-02    0.459E-02
DAV:   3    -0.928040907580E+03    0.22529E-05   -0.14027E-04  2584   0.237E-02    0.337E-02
DAV:   4    -0.928040898846E+03    0.87343E-05   -0.61124E-05  2424   0.166E-02    0.260E-02
DAV:   5    -0.928040909654E+03   -0.10808E-04   -0.26998E-05  2448   0.164E-02    0.220E-02
DAV:   6    -0.928040886631E+03    0.23023E-04   -0.18763E-05  2096   0.125E-02    0.898E-03
DAV:   7    -0.928040888837E+03   -0.22058E-05   -0.14645E-05  2008   0.576E-03
  28 F= -.10018349E+04 E0= -.10017581E+04  d E =-.143835E-02
 curvature:  -7.46 expect dE=-0.137E-02 dE for cont linesearch -0.271E-07
 trial: gam= 0.59000 g(F)=  0.183E-03 g(S)=  0.000E+00 ort = 0.145E-05 (trialstep = 0.604E+01)
 search vector abs. value=  0.386E-03
 bond charge predicted
       N       E                     dE             d eps       ncg     rms          rms(c)
DAV:   1    -0.928044282148E+03   -0.33955E-02   -0.37897E-02  2200   0.286E-01    0.107E-01
DAV:   2    -0.928044729774E+03   -0.44763E-03   -0.49736E-03  2520   0.689E-02    0.822E-02
DAV:   3    -0.928044869860E+03   -0.14009E-03   -0.18957E-04  2656   0.580E-02    0.694E-02
DAV:   4    -0.928044614616E+03    0.25524E-03   -0.21554E-04  2560   0.417E-02    0.436E-02
DAV:   5    -0.928044604040E+03    0.10576E-04   -0.15622E-04  2624   0.293E-02    0.197E-02
DAV:   6    -0.928044619012E+03   -0.14972E-04   -0.27441E-04  2400   0.193E-02    0.256E-02
DAV:   7    -0.928044595502E+03    0.23510E-04   -0.38089E-05  2192   0.146E-02    0.131E-02
DAV:   8    -0.928044599357E+03   -0.38544E-05   -0.66200E-05  2192   0.795E-03    0.742E-03
DAV:   9    -0.928044597959E+03    0.13976E-05   -0.47023E-06  1256   0.484E-03
  29 F= -.10018355E+04 E0= -.10017589E+04  d E =-.551867E-03
 trial-energy change:   -0.000552  1 .order   -0.000549   -0.001113    0.000016
 step:   5.9607(harm=  5.9607)  dis= 0.00258  next Energy= -1001.835467 (dE=-0.549E-03)
 bond charge predicted
       N       E                     dE             d eps       ncg     rms          rms(c)
DAV:   1    -0.928044553929E+03    0.45428E-04   -0.11176E-05  1464   0.476E-03    0.186E-03
DAV:   2    -0.928044554304E+03   -0.37476E-06   -0.19970E-06  1152   0.217E-03    0.221E-03
DAV:   3    -0.928044554386E+03   -0.82160E-07   -0.39934E-07  1112   0.973E-04    0.207E-03
DAV:   4    -0.928044554503E+03   -0.11678E-06   -0.14862E-07  1112   0.822E-04    0.191E-03
DAV:   5    -0.928044554626E+03   -0.12350E-06   -0.11735E-07  1112   0.826E-04    0.159E-03
DAV:   6    -0.928044554920E+03   -0.29347E-06   -0.13555E-07  1120   0.697E-04
  30 F= -.10018355E+04 E0= -.10017589E+04  d E =-.552689E-03
 curvature:  -6.24 expect dE=-0.661E-03 dE for cont linesearch -0.184E-07
 trial: gam= 0.56600 g(F)=  0.106E-03 g(S)=  0.000E+00 ort =-0.107E-05 (trialstep = 0.603E+01)
 search vector abs. value=  0.228E-03
 bond charge predicted
       N       E                     dE             d eps       ncg     rms          rms(c)
DAV:   1    -0.928049316978E+03   -0.47624E-02   -0.40224E-02  2152   0.285E-01    0.928E-02
DAV:   2    -0.928049549820E+03   -0.23284E-03   -0.27288E-03  2392   0.549E-02    0.413E-02
DAV:   3    -0.928049576448E+03   -0.26628E-04   -0.88075E-05  2728   0.241E-02    0.327E-02
DAV:   4    -0.928049536828E+03    0.39620E-04   -0.27264E-05  2328   0.187E-02    0.249E-02
DAV:   5    -0.928049536896E+03   -0.67550E-07   -0.63076E-05  2352   0.128E-02    0.150E-02
DAV:   6    -0.928049531493E+03    0.54023E-05   -0.28512E-05  2224   0.827E-03    0.914E-03
DAV:   7    -0.928049530666E+03    0.82738E-06   -0.73725E-06  1712   0.585E-03
  31 F= -.10018359E+04 E0= -.10017597E+04  d E =-.431646E-03
 trial-energy change:   -0.000432  1 .order   -0.000432   -0.000635   -0.000230
 step:   9.4546(harm=  9.4546)  dis= 0.00294  next Energy= -1001.835969 (dE=-0.498E-03)
 bond charge predicted
       N       E                     dE             d eps       ncg     rms          rms(c)
DAV:   1    -0.928052113006E+03   -0.25815E-02   -0.13026E-02  2168   0.163E-01    0.521E-02
DAV:   2    -0.928052190448E+03   -0.77442E-04   -0.91044E-04  2392   0.313E-02    0.264E-02
DAV:   3    -0.928052190487E+03   -0.38257E-07   -0.25909E-05  2392   0.121E-02    0.192E-02
DAV:   4    -0.928052188068E+03    0.24181E-05   -0.11572E-05  1912   0.104E-02    0.150E-02
DAV:   5    -0.928052186986E+03    0.10820E-05   -0.25177E-05  2256   0.901E-03    0.915E-03
DAV:   6    -0.928052183488E+03    0.34983E-05   -0.12591E-05  1896   0.565E-03
  32 F= -.10018360E+04 E0= -.10017600E+04  d E =-.501985E-03
 curvature: -10.25 expect dE=-0.633E-03 dE for cont linesearch -0.279E-06
 trial: gam= 0.55737 g(F)=  0.618E-04 g(S)=  0.000E+00 ort = 0.249E-05 (trialstep = 0.671E+01)
 search vector abs. value=  0.135E-03
 bond charge predicted
       N       E                     dE             d eps       ncg     rms          rms(c)
DAV:   1    -0.928057816059E+03   -0.56291E-02   -0.22754E-02  2192   0.216E-01    0.759E-02
DAV:   2    -0.928057983911E+03   -0.16785E-03   -0.19953E-03  2440   0.443E-02    0.407E-02
DAV:   3    -0.928057965023E+03    0.18888E-04   -0.54028E-05  2528   0.200E-02    0.282E-02
DAV:   4    -0.928057979973E+03   -0.14950E-04   -0.65028E-05  2368   0.173E-02    0.208E-02
DAV:   5    -0.928057967288E+03    0.12685E-04   -0.27741E-05  2496   0.176E-02    0.128E-02
DAV:   6    -0.928057958161E+03    0.91267E-05   -0.47572E-05  2304   0.106E-02    0.116E-02
DAV:   7    -0.928057955587E+03    0.25742E-05   -0.95032E-06  1792   0.849E-03
  33 F= -.10018362E+04 E0= -.10017609E+04  d E =-.249739E-03
 trial-energy change:   -0.000250  1 .order   -0.000252   -0.000424   -0.000080
 step:   8.2783(harm=  8.2783)  dis= 0.00226  next Energy= -1001.836235 (dE=-0.262E-03)
 bond charge predicted
       N       E                     dE             d eps       ncg     rms          rms(c)
DAV:   1    -0.928059248857E+03   -0.12907E-02   -0.12734E-03  2208   0.511E-02    0.169E-02
DAV:   2    -0.928059257762E+03   -0.89050E-05   -0.10430E-04  2424   0.105E-02    0.129E-02
DAV:   3    -0.928059261961E+03   -0.41991E-05   -0.51523E-06  1752   0.897E-03    0.112E-02
DAV:   4    -0.928059254706E+03    0.72549E-05   -0.23421E-06  1688   0.744E-03    0.741E-03
DAV:   5    -0.928059254710E+03   -0.37980E-08   -0.83320E-06  1592   0.414E-03    0.467E-03
DAV:   6    -0.928059254283E+03    0.42625E-06   -0.18164E-06  1144   0.314E-03
  34 F= -.10018362E+04 E0= -.10017611E+04  d E =-.261249E-03
 curvature:  -8.87 expect dE=-0.582E-03 dE for cont linesearch -0.101E-06
 trial: gam= 1.05952 g(F)=  0.656E-04 g(S)=  0.000E+00 ort = 0.124E-05 (trialstep = 0.432E+01)
 search vector abs. value=  0.220E-03
 bond charge predicted
       N       E                     dE             d eps       ncg     rms          rms(c)
DAV:   1    -0.928064172060E+03   -0.49174E-02   -0.11983E-02  2232   0.158E-01    0.501E-02
DAV:   2    -0.928064248858E+03   -0.76798E-04   -0.91105E-04  2464   0.320E-02    0.276E-02
DAV:   3    -0.928064270145E+03   -0.21287E-04   -0.46145E-05  2632   0.208E-02    0.231E-02
DAV:   4    -0.928064239889E+03    0.30257E-04   -0.25132E-05  2248   0.158E-02    0.153E-02
DAV:   5    -0.928064242313E+03   -0.24245E-05   -0.31354E-05  2152   0.104E-02    0.104E-02
DAV:   6    -0.928064235746E+03    0.65671E-05   -0.26839E-05  2184   0.820E-03    0.623E-03
DAV:   7    -0.928064235376E+03    0.37040E-06   -0.39226E-06  1232   0.521E-03
  35 F= -.10018364E+04 E0= -.10017618E+04  d E =-.196848E-03
 trial-energy change:   -0.000197  1 .order   -0.000202   -0.000289   -0.000114
 step:   7.1410(harm=  7.1410)  dis= 0.00250  next Energy= -1001.836473 (dE=-0.239E-03)
 bond charge predicted
       N       E                     dE             d eps       ncg     rms          rms(c)
DAV:   1    -0.928067374421E+03   -0.31387E-02   -0.51493E-03  2256   0.104E-01    0.325E-02
DAV:   2    -0.928067407323E+03   -0.32902E-04   -0.40280E-04  2408   0.204E-02    0.207E-02
DAV:   3    -0.928067406549E+03    0.77362E-06   -0.15761E-05  2184   0.114E-02    0.151E-02
DAV:   4    -0.928067404619E+03    0.19300E-05   -0.13606E-05  2000   0.955E-03    0.112E-02
DAV:   5    -0.928067404114E+03    0.50523E-06   -0.13238E-05  1920   0.848E-03    0.738E-03
DAV:   6    -0.928067400564E+03    0.35506E-05   -0.14133E-05  1976   0.592E-03
  36 F= -.10018365E+04 E0= -.10017621E+04  d E =-.237746E-03
 curvature: -11.75 expect dE=-0.454E-03 dE for cont linesearch -0.142E-06
 trial: gam= 0.62636 g(F)=  0.386E-04 g(S)=  0.000E+00 ort = 0.163E-05 (trialstep = 0.488E+01)
 search vector abs. value=  0.127E-03
 bond charge predicted
       N       E                     dE             d eps       ncg     rms          rms(c)
DAV:   1    -0.928071693518E+03   -0.42894E-02   -0.12841E-02  2168   0.163E-01    0.521E-02
DAV:   2    -0.928071763354E+03   -0.69835E-04   -0.79032E-04  2408   0.294E-02    0.210E-02
DAV:   3    -0.928071766827E+03   -0.34739E-05   -0.39871E-05  2472   0.106E-02    0.160E-02
DAV:   4    -0.928071762018E+03    0.48090E-05   -0.80565E-06  1872   0.856E-03    0.129E-02
DAV:   5    -0.928071761649E+03    0.36933E-06   -0.11200E-05  1936   0.721E-03    0.103E-02
DAV:   6    -0.928071757818E+03    0.38310E-05   -0.11201E-05  1864   0.557E-03
  37 F= -.10018366E+04 E0= -.10017627E+04  d E =-.147981E-03
 trial-energy change:   -0.000148  1 .order   -0.000149   -0.000194   -0.000104
 step:  10.5185(harm= 10.5185)  dis= 0.00310  next Energy= -1001.836680 (dE=-0.208E-03)
 bond charge predicted
       N       E                     dE             d eps       ncg     rms          rms(c)
DAV:   1    -0.928076584706E+03   -0.48231E-02   -0.17137E-02  2164   0.188E-01    0.597E-02
DAV:   2    -0.928076686420E+03   -0.10171E-03   -0.11526E-03  2392   0.350E-02    0.278E-02
DAV:   3    -0.928076690987E+03   -0.45671E-05   -0.50589E-05  2608   0.140E-02    0.205E-02
DAV:   4    -0.928076681626E+03    0.93613E-05   -0.96848E-06  1920   0.109E-02    0.164E-02
DAV:   5    -0.928076683032E+03   -0.14063E-05   -0.27733E-05  2168   0.929E-03    0.114E-02
DAV:   6    -0.928076677375E+03    0.56565E-05   -0.18034E-05  2120   0.664E-03    0.697E-03
DAV:   7    -0.928076677173E+03    0.20240E-06   -0.28847E-06  1192   0.367E-03
  38 F= -.10018367E+04 E0= -.10017633E+04  d E =-.212010E-03
 curvature: -16.87 expect dE=-0.576E-03 dE for cont linesearch -0.141E-07
 trial: gam= 0.85306 g(F)=  0.342E-04 g(S)=  0.000E+00 ort = 0.326E-06 (trialstep = 0.601E+01)
 search vector abs. value=  0.127E-03
 bond charge predicted
       N       E                     dE             d eps       ncg     rms          rms(c)
DAV:   1    -0.928081582234E+03   -0.49049E-02   -0.93701E-03  2308   0.140E-01    0.394E-02
DAV:   2    -0.928081645439E+03   -0.63205E-04   -0.73598E-04  2440   0.318E-02    0.287E-02
DAV:   3    -0.928081641913E+03    0.35258E-05   -0.84035E-05  2520   0.200E-02    0.239E-02
DAV:   4    -0.928081631003E+03    0.10910E-04   -0.33207E-05  2264   0.137E-02    0.171E-02
DAV:   5    -0.928081629552E+03    0.14515E-05   -0.17728E-05  2048   0.111E-02    0.135E-02
DAV:   6    -0.928081624376E+03    0.51761E-05   -0.34421E-05  2520   0.103E-02    0.875E-03
DAV:   7    -0.928081623073E+03    0.13030E-05   -0.64064E-06  1320   0.640E-03
  39 F= -.10018368E+04 E0= -.10017638E+04  d E =-.110895E-03
 trial-energy change:   -0.000111  1 .order   -0.000109   -0.000207   -0.000011
 step:   6.3539(harm=  6.3539)  dis= 0.00141  next Energy= -1001.836793 (dE=-0.109E-03)
 bond charge predicted
       N       E                     dE             d eps       ncg     rms          rms(c)
DAV:   1    -0.928081905002E+03   -0.28063E-03   -0.43846E-05  2368   0.945E-03    0.336E-03
DAV:   2    -0.928081905371E+03   -0.36895E-06   -0.46509E-06  1288   0.236E-03    0.323E-03
DAV:   3    -0.928081905363E+03    0.79453E-08   -0.40131E-07  1120   0.150E-03    0.273E-03
DAV:   4    -0.928081905389E+03   -0.25728E-07   -0.22503E-07  1112   0.122E-03    0.221E-03
DAV:   5    -0.928081905492E+03   -0.10298E-06   -0.44079E-07  1112   0.146E-03    0.180E-03
DAV:   6    -0.928081905557E+03   -0.65629E-07   -0.32598E-07  1088   0.942E-04
  40 F= -.10018368E+04 E0= -.10017639E+04  d E =-.112824E-03
 curvature: -11.73 expect dE=-0.240E-03 dE for cont linesearch -0.154E-06
 trial: gam= 0.53821 g(F)=  0.205E-04 g(S)=  0.000E+00 ort = 0.129E-05 (trialstep = 0.608E+01)
 search vector abs. value=  0.587E-04
