NiAl                                    
            1
     0.000000  -17.180573    0.000000
     0.000000   -8.590287  -14.878813
    30.000000    0.000000    0.000000
   Al   O 
   252     1
Direct configuration=     1
   0.44444444  0.44444444  0.07873473
   0.44444444  0.77777778  0.07873473
   0.44444444  0.11111111  0.07873473
   0.77777778  0.44444444  0.07873473
   0.77777778  0.77777778  0.07873473
   0.77777778  0.11111111  0.07873473
   0.11111111  0.44444444  0.07873473
   0.11111111  0.77777778  0.07873473
   0.11111111  0.11111111  0.07873473
   0.55555556  0.55555556  0.15702584
   0.55555556  0.88888889  0.15702584
   0.55555556  0.22222222  0.15702584
   0.88888889  0.55555556  0.15702584
   0.88888889  0.88888889  0.15702584
   0.88888889  0.22222222  0.15702584
   0.22222222  0.55555556  0.15702584
   0.22222222  0.88888889  0.15702584
   0.22222222  0.22222222  0.15702584
   0.66666667  0.66666667  0.23375740
   0.66666667  0.00000000  0.23375740
   0.66666667  0.33333333  0.23375740
   0.00000000  0.66666667  0.23375740
   0.00000000  0.00000000  0.23375740
   0.00000000  0.33333333  0.23375740
   0.33333333  0.66666667  0.23375740
   0.33333333  0.00000000  0.23375740
   0.33333333  0.33333333  0.23375740
   0.77777778  0.77777778  0.31173066
   0.77777778  0.11111111  0.31173066
   0.77777778  0.44444444  0.31173066
   0.11111111  0.77777778  0.31173066
   0.11111111  0.11111111  0.31173066
   0.11111111  0.44444444  0.31173066
   0.44444444  0.77777778  0.31173066
   0.44444444  0.11111111  0.31173066
   0.44444444  0.44444444  0.31173066
   0.88888889  0.88888889  0.38970391
   0.88888889  0.22222222  0.38970391
   0.88888889  0.55555556  0.38970391
   0.22222222  0.88888889  0.38970391
   0.22222222  0.22222222  0.38970391
   0.22222222  0.55555556  0.38970391
   0.55555556  0.88888889  0.38970391
   0.55555556  0.22222222  0.38970391
   0.55555556  0.55555556  0.38970391
   0.00000000  0.00000000  0.46643547
   0.00000000  0.33333333  0.46643547
   0.00000000  0.66666667  0.46643547
   0.33333333  0.00000000  0.46643547
   0.33333333  0.33333333  0.46643547
   0.33333333  0.66666667  0.46643547
   0.66666667  0.00000000  0.46643547
   0.66666667  0.33333333  0.46643547
   0.66666667  0.66666667  0.46643547
   0.11111111  0.11111111  0.54472658
   0.11111111  0.44444444  0.54472658
   0.11111111  0.77777778  0.54472658
   0.44444444  0.11111111  0.54472658
   0.44444444  0.44444444  0.54472658
   0.44444444  0.77777778  0.54472658
   0.77777778  0.11111111  0.54472658
   0.77777778  0.44444444  0.54472658
   0.77777778  0.77777778  0.54472658
   0.27777778  0.27777778  0.07873473
   0.27777778  0.61111111  0.07873473
   0.27777778  0.94444444  0.07873473
   0.61111111  0.27777778  0.07873473
   0.61111111  0.61111111  0.07873473
   0.61111111  0.94444444  0.07873473
   0.94444444  0.27777778  0.07873473
   0.94444444  0.61111111  0.07873473
   0.94444444  0.94444444  0.07873473
   0.38888889  0.38888889  0.15702584
   0.38888889  0.72222222  0.15702584
   0.38888889  0.05555556  0.15702584
   0.72222222  0.38888889  0.15702584
   0.72222222  0.72222222  0.15702584
   0.72222222  0.05555556  0.15702584
   0.05555556  0.38888889  0.15702584
   0.05555556  0.72222222  0.15702584
   0.05555556  0.05555556  0.15702584
   0.50000000  0.50000000  0.23375740
   0.50000000  0.83333333  0.23375740
   0.50000000  0.16666667  0.23375740
   0.83333333  0.50000000  0.23375740
   0.83333333  0.83333333  0.23375740
   0.83333333  0.16666667  0.23375740
   0.16666667  0.50000000  0.23375740
   0.16666667  0.83333333  0.23375740
   0.16666667  0.16666667  0.23375740
   0.61111111  0.61111111  0.31173066
   0.61111111  0.94444444  0.31173066
   0.61111111  0.27777778  0.31173066
   0.94444444  0.61111111  0.31173066
   0.94444444  0.94444444  0.31173066
   0.94444444  0.27777778  0.31173066
   0.27777778  0.61111111  0.31173066
   0.27777778  0.94444444  0.31173066
   0.27777778  0.27777778  0.31173066
   0.72222222  0.72222222  0.38970391
   0.72222222  0.05555556  0.38970391
   0.72222222  0.38888889  0.38970391
   0.05555556  0.72222222  0.38970391
   0.05555556  0.05555556  0.38970391
   0.05555556  0.38888889  0.38970391
   0.38888889  0.72222222  0.38970391
   0.38888889  0.05555556  0.38970391
   0.38888889  0.38888889  0.38970391
   0.83333333  0.83333333  0.46643547
   0.83333333  0.16666667  0.46643547
   0.83333333  0.50000000  0.46643547
   0.16666667  0.83333333  0.46643547
   0.16666667  0.16666667  0.46643547
   0.16666667  0.50000000  0.46643547
   0.50000000  0.83333333  0.46643547
   0.50000000  0.16666667  0.46643547
   0.50000000  0.50000000  0.46643547
   0.94444444  0.94444444  0.54472658
   0.94444444  0.27777778  0.54472658
   0.94444444  0.61111111  0.54472658
   0.27777778  0.94444444  0.54472658
   0.27777778  0.27777778  0.54472658
   0.27777778  0.61111111  0.54472658
   0.61111111  0.94444444  0.54472658
   0.61111111  0.27777778  0.54472658
   0.61111111  0.61111111  0.54472658
   0.27777778  0.44444444  0.07873473
   0.27777778  0.77777778  0.07873473
   0.27777778  0.11111111  0.07873473
   0.61111111  0.44444444  0.07873473
   0.61111111  0.77777778  0.07873473
   0.61111111  0.11111111  0.07873473
   0.94444444  0.44444444  0.07873473
   0.94444444  0.77777778  0.07873473
   0.94444444  0.11111111  0.07873473
   0.38888889  0.55555556  0.15702584
   0.38888889  0.88888889  0.15702584
   0.38888889  0.22222222  0.15702584
   0.72222222  0.55555556  0.15702584
   0.72222222  0.88888889  0.15702584
   0.72222222  0.22222222  0.15702584
   0.05555556  0.55555556  0.15702584
   0.05555556  0.88888889  0.15702584
   0.05555556  0.22222222  0.15702584
   0.50000000  0.66666667  0.23375740
   0.50000000  0.00000000  0.23375740
   0.50000000  0.33333333  0.23375740
   0.83333333  0.66666667  0.23375740
   0.83333333  0.00000000  0.23375740
   0.83333333  0.33333333  0.23375740
   0.16666667  0.66666667  0.23375740
   0.16666667  0.00000000  0.23375740
   0.16666667  0.33333333  0.23375740
   0.61111111  0.77777778  0.31173066
   0.61111111  0.11111111  0.31173066
   0.61111111  0.44444444  0.31173066
   0.94444444  0.77777778  0.31173066
   0.94444444  0.11111111  0.31173066
   0.94444444  0.44444444  0.31173066
   0.27777778  0.77777778  0.31173066
   0.27777778  0.11111111  0.31173066
   0.27777778  0.44444444  0.31173066
   0.72222222  0.88888889  0.38970391
   0.72222222  0.22222222  0.38970391
   0.72222222  0.55555556  0.38970391
   0.05555556  0.88888889  0.38970391
   0.05555556  0.22222222  0.38970391
   0.05555556  0.55555556  0.38970391
   0.38888889  0.88888889  0.38970391
   0.38888889  0.22222222  0.38970391
   0.38888889  0.55555556  0.38970391
   0.83333333  0.00000000  0.46643547
   0.83333333  0.33333333  0.46643547
   0.83333333  0.66666667  0.46643547
   0.16666667  0.00000000  0.46643547
   0.16666667  0.33333333  0.46643547
   0.16666667  0.66666667  0.46643547
   0.50000000  0.00000000  0.46643547
   0.50000000  0.33333333  0.46643547
   0.50000000  0.66666667  0.46643547
   0.94444444  0.11111111  0.54472658
   0.94444444  0.44444444  0.54472658
   0.94444444  0.77777778  0.54472658
   0.27777778  0.11111111  0.54472658
   0.27777778  0.44444444  0.54472658
   0.27777778  0.77777778  0.54472658
   0.61111111  0.11111111  0.54472658
   0.61111111  0.44444444  0.54472658
   0.61111111  0.77777778  0.54472658
   0.44444444  0.27777778  0.07873473
   0.44444444  0.61111111  0.07873473
   0.44444444  0.94444444  0.07873473
   0.77777778  0.27777778  0.07873473
   0.77777778  0.61111111  0.07873473
   0.77777778  0.94444444  0.07873473
   0.11111111  0.27777778  0.07873473
   0.11111111  0.61111111  0.07873473
   0.11111111  0.94444444  0.07873473
   0.55555556  0.38888889  0.15702584
   0.55555556  0.72222222  0.15702584
   0.55555556  0.05555556  0.15702584
   0.88888889  0.38888889  0.15702584
   0.88888889  0.72222222  0.15702584
   0.88888889  0.05555556  0.15702584
   0.22222222  0.38888889  0.15702584
   0.22222222  0.72222222  0.15702584
   0.22222222  0.05555556  0.15702584
   0.66666667  0.50000000  0.23375740
   0.66666667  0.83333333  0.23375740
   0.66666667  0.16666667  0.23375740
   0.00000000  0.50000000  0.23375740
   0.00000000  0.83333333  0.23375740
   0.00000000  0.16666667  0.23375740
   0.33333333  0.50000000  0.23375740
   0.33333333  0.83333333  0.23375740
   0.33333333  0.16666667  0.23375740
   0.77777778  0.61111111  0.31173066
   0.77777778  0.94444444  0.31173066
   0.77777778  0.27777778  0.31173066
   0.11111111  0.61111111  0.31173066
   0.11111111  0.94444444  0.31173066
   0.11111111  0.27777778  0.31173066
   0.44444444  0.61111111  0.31173066
   0.44444444  0.94444444  0.31173066
   0.44444444  0.27777778  0.31173066
   0.88888889  0.72222222  0.38970391
   0.88888889  0.05555556  0.38970391
   0.88888889  0.38888889  0.38970391
   0.22222222  0.72222222  0.38970391
   0.22222222  0.05555556  0.38970391
   0.22222222  0.38888889  0.38970391
   0.55555556  0.72222222  0.38970391
   0.55555556  0.05555556  0.38970391
   0.55555556  0.38888889  0.38970391
   0.00000000  0.83333333  0.46643547
   0.00000000  0.16666667  0.46643547
   0.00000000  0.50000000  0.46643547
   0.33333333  0.83333333  0.46643547
   0.33333333  0.16666667  0.46643547
   0.33333333  0.50000000  0.46643547
   0.66666667  0.83333333  0.46643547
   0.66666667  0.16666667  0.46643547
   0.66666667  0.50000000  0.46643547
   0.11111111  0.94444444  0.54472658
   0.11111111  0.27777778  0.54472658
   0.11111111  0.61111111  0.54472658
   0.44444444  0.94444444  0.54472658
   0.44444444  0.27777778  0.54472658
   0.44444444  0.61111111  0.54472658
   0.77777778  0.94444444  0.54472658
   0.77777778  0.27777778  0.54472658
   0.77777778  0.61111111  0.54472658
   0.38888889  0.55555556  0.59000000
Direct configuration=     2
   0.44444568  0.44444196  0.07880972
   0.44443109  0.77780171  0.07879766
   0.44445635  0.11110728  0.07879645
   0.77778548  0.44444036  0.07878955
   0.77779508  0.77774317  0.07879646
   0.77776970  0.11110728  0.07879645
   0.11110749  0.44444036  0.07878955
   0.11110053  0.77780171  0.07879766
   0.11111243  0.11110848  0.07879345
   0.55556137  0.55556834  0.15706321
   0.55555962  0.88887850  0.15705040
   0.55555877  0.22221579  0.15705384
   0.88889068  0.55555197  0.15705567
   0.88889521  0.88887850  0.15705040
   0.88889462  0.22222689  0.15705211
   0.22220363  0.55556834  0.15706321
   0.22221780  0.88889773  0.15705913
   0.22221182  0.22222689  0.15705211
   0.66665423  0.66667936  0.23377133
   0.66667227 -0.00001121  0.23377076
   0.66664085  0.33335051  0.23376867
  -0.00000026  0.66667936  0.23377133
  -0.00000446  0.00000208  0.23376769
   0.00001000  0.33331333  0.23376486
   0.33332593  0.66668146  0.23376478
   0.33333572  0.00000208  0.23376769
   0.33334198  0.33335051  0.23376867
   0.77777869  0.77777595  0.31171633
   0.77777853  0.11111808  0.31172525
   0.77776624  0.44444489  0.31172712
   0.11112631  0.77777465  0.31173191
   0.11111051  0.11111231  0.31173791
   0.11112220  0.44444489  0.31172712
   0.44443238  0.77777465  0.31173191
   0.44443672  0.11111808  0.31172525
   0.44444038  0.44445257  0.31173085
   0.88889755  0.88888168  0.38970078
   0.88889194  0.22221784  0.38969636
   0.88889289  0.55554755  0.38969427
   0.22223663  0.88886007  0.38970350
   0.22222354  0.22221784  0.38969636
   0.22223659  0.55554552  0.38968502
   0.55555410  0.88888168  0.38970078
   0.55553975  0.22225383  0.38971137
   0.55555122  0.55554552  0.38968502
  -0.00001154  0.00000545  0.46641927
   0.00000943  0.33331448  0.46640688
  -0.00002704  0.66669282  0.46640788
   0.33333943  0.00000545  0.46641927
   0.33331970  0.33335812  0.46640913
   0.33336328  0.66660677  0.46646716
   0.66666698 -0.00000063  0.46639548
   0.66665551  0.33335812  0.46640913
   0.66666755  0.66669282  0.46640788
   0.11111491  0.11110351  0.54466335
   0.11111426  0.44443814  0.54467536
   0.11116064  0.77774766  0.54467493
   0.44445046  0.11111136  0.54466684
   0.44394543  0.44544247  0.54544581
   0.44442504  0.77774766  0.54467493
   0.77777151  0.11111136  0.54466684
   0.77778094  0.44443814  0.54467536
   0.77778636  0.77776061  0.54466433
   0.27777370  0.27777416  0.07878955
   0.27777530  0.61111235  0.07880972
   0.27777370  0.94445214  0.07878955
   0.61113505  0.27776720  0.07879766
   0.61113505  0.61109776  0.07879766
   0.61107651  0.94446175  0.07879646
   0.94444181  0.27777909  0.07879345
   0.94444061  0.61112302  0.07879645
   0.94444061  0.94443637  0.07879645
   0.38890167  0.38887029  0.15706321
   0.38890167  0.72222804  0.15706321
   0.38888531  0.05555735  0.15705567
   0.72223106  0.38888447  0.15705913
   0.72221184  0.72222628  0.15705040
   0.72221184  0.05556188  0.15705040
   0.05556022  0.38887849  0.15705211
   0.05554913  0.72222544  0.15705384
   0.05556022  0.05556129  0.15705211
   0.50001480  0.49999260  0.23376478
   0.50001269  0.83332090  0.23377133
   0.50001269  0.16666641  0.23377133
   0.83333541  0.50000238  0.23376769
   0.83332212  0.83333894  0.23377076
   0.83333541  0.16666221  0.23376769
   0.16668384  0.50000865  0.23376867
   0.16668384  0.83330751  0.23376867
   0.16664666  0.16667667  0.23376486
   0.61110798  0.61109905  0.31173191
   0.61110928  0.94444536  0.31171633
   0.61110798  0.27779297  0.31173191
   0.94445142  0.61110339  0.31172525
   0.94445142  0.94444520  0.31172525
   0.94444564  0.27777718  0.31173791
   0.27778590  0.61110705  0.31173085
   0.27777822  0.94443291  0.31172712
   0.27777822  0.27778887  0.31172712
   0.72221502  0.72222077  0.38970078
   0.72221502  0.05556422  0.38970078
   0.72219341  0.38890330  0.38970350
   0.05558716  0.72220642  0.38971137
   0.05555118  0.05555861  0.38969636
   0.05555118  0.38889021  0.38969636
   0.38887885  0.72221789  0.38968502
   0.38888088  0.05555956  0.38969427
   0.38887885  0.38890326  0.38968502
   0.83333270  0.83333365  0.46639548
   0.83333878  0.16665513  0.46641927
   0.83333878  0.50000609  0.46641927
   0.16669145  0.83332218  0.46640913
   0.16664781  0.16667610  0.46640688
   0.16669145  0.49998637  0.46640913
   0.50002616  0.83333422  0.46640788
   0.50002616  0.16663962  0.46640788
   0.49994010  0.50002995  0.46646716
   0.94444470  0.94443817  0.54466684
   0.94443685  0.27778158  0.54466335
   0.94444470  0.61111713  0.54466684
   0.27777147  0.94444760  0.54467536
   0.27777147  0.27778092  0.54467536
   0.27877580  0.61061210  0.54544581
   0.61109394  0.94445303  0.54466433
   0.61108099  0.27782730  0.54467493
   0.61108099  0.61109170  0.54467493
   0.27776650  0.44443317  0.07878706
   0.27776650  0.77780033  0.07878706
   0.27777122  0.11111439  0.07879351
   0.61113366  0.44443317  0.07878706
   0.61111014  0.77777681  0.07879581
   0.61111014  0.11111305  0.07879581
   0.94444772  0.44443789  0.07879351
   0.94444638  0.77777681  0.07879581
   0.94444772  0.11111439  0.07879351
   0.38888889  0.55555556  0.15706785
   0.38888902  0.88889169  0.15705042
   0.38888902  0.22221929  0.15705042
   0.72222502  0.55555569  0.15705042
   0.72222222  0.88888889  0.15705154
   0.72222502  0.22221929  0.15705042
   0.05555262  0.55555569  0.15705042
   0.05555262  0.88889169  0.15705042
   0.05555556  0.22222222  0.15705965
   0.49999988  0.66666655  0.23376533
   0.50002390 -0.00001195  0.23376589
   0.49999988  0.33333357  0.23376533
   0.83332138  0.66669057  0.23376589
   0.83332138 -0.00001195  0.23376589
   0.83334383  0.33332809  0.23376144
   0.16666690  0.66666655  0.23376533
   0.16666142  0.00001049  0.23376144
   0.16666142  0.33332809  0.23376144
   0.61111899  0.77778566  0.31171341
   0.61111899  0.11109535  0.31171341
   0.61111056  0.44444472  0.31172792
   0.94442868  0.77778566  0.31171341
   0.94445273  0.11111940  0.31173456
   0.94445273  0.44442787  0.31173456
   0.27777805  0.77777723  0.31172792
   0.27776120  0.11111940  0.31173456
   0.27777805  0.44444472  0.31172792
   0.72222222  0.88888889  0.38972632
   0.72219350  0.22224728  0.38969116
   0.72219350  0.55555922  0.38969116
   0.05558061  0.88886017  0.38969116
   0.05555556  0.22222222  0.38970143
   0.05558061  0.55555922  0.38969116
   0.38889255  0.88886017  0.38969116
   0.38889255  0.22224728  0.38969116
   0.38888889  0.55555556  0.38970113
   0.83333967  0.00000633  0.46640398
   0.83336073  0.33331964  0.46640635
   0.83333967  0.66665400  0.46640398
   0.16665297  0.00002739  0.46640635
   0.16665297  0.33331964  0.46640635
   0.16659392  0.66670304  0.46635322
   0.49998734  0.00000633  0.46640398
   0.50003638  0.33326058  0.46635322
   0.50003638  0.66670304  0.46635322
   0.94444599  0.11111266  0.54466976
   0.94444599  0.44444135  0.54466976
   0.94446726  0.77776637  0.54467284
   0.27777468  0.11111266  0.54466976
   0.27768805  0.44435471  0.54459271
   0.27768805  0.77795724  0.54459271
   0.61109970  0.11113393  0.54467284
   0.61129057  0.44435471  0.54459271
   0.61109970  0.77776637  0.54467284
   0.44443109  0.27776720  0.07879766
   0.44444568  0.61111235  0.07880972
   0.44445635  0.94443637  0.07879645
   0.77778548  0.27777416  0.07878955
   0.77776970  0.61112302  0.07879645
   0.77779508  0.94446175  0.07879646
   0.11111243  0.27777909  0.07879345
   0.11110053  0.61109776  0.07879766
   0.11110749  0.94445214  0.07878955
   0.55556137  0.38887029  0.15706321
   0.55555877  0.72222544  0.15705384
   0.55555962  0.05556188  0.15705040
   0.88889462  0.38887849  0.15705211
   0.88889521  0.72222628  0.15705040
   0.88889068  0.05555735  0.15705567
   0.22221780  0.38888447  0.15705913
   0.22220363  0.72222804  0.15706321
   0.22221182  0.05556129  0.15705211
   0.66664085  0.50000865  0.23376867
   0.66667227  0.83333894  0.23377076
   0.66665423  0.16666641  0.23377133
  -0.00000446  0.50000238  0.23376769
  -0.00000026  0.83332090  0.23377133
   0.00001000  0.16667667  0.23376486
   0.33332593  0.49999260  0.23376478
   0.33334198  0.83330751  0.23376867
   0.33333572  0.16666221  0.23376769
   0.77777853  0.61110339  0.31172525
   0.77777869  0.94444536  0.31171633
   0.77776624  0.27778887  0.31172712
   0.11112631  0.61109905  0.31173191
   0.11112220  0.94443291  0.31172712
   0.11111051  0.27777718  0.31173791
   0.44444038  0.61110705  0.31173085
   0.44443672  0.94444520  0.31172525
   0.44443238  0.27779297  0.31173191
   0.88889755  0.72222077  0.38970078
   0.88889289  0.05555956  0.38969427
   0.88889194  0.38889021  0.38969636
   0.22223659  0.72221789  0.38968502
   0.22222354  0.05555861  0.38969636
   0.22223663  0.38890330  0.38970350
   0.55553975  0.72220642  0.38971137
   0.55555410  0.05556422  0.38970078
   0.55555122  0.38890326  0.38968502
  -0.00002704  0.83333422  0.46640788
   0.00000943  0.16667610  0.46640688
  -0.00001154  0.50000609  0.46641927
   0.33331970  0.83332218  0.46640913
   0.33333943  0.16665513  0.46641927
   0.33336328  0.50002995  0.46646716
   0.66666698  0.83333365  0.46639548
   0.66666755  0.16663962  0.46640788
   0.66665551  0.49998637  0.46640913
   0.11111426  0.94444760  0.54467536
   0.11111491  0.27778158  0.54466335
   0.11116064  0.61109170  0.54467493
   0.44445046  0.94443817  0.54466684
   0.44442504  0.27782730  0.54467493
   0.44394543  0.61061210  0.54544581
   0.77778636  0.94445303  0.54466433
   0.77778094  0.27778092  0.54467536
   0.77777151  0.61111713  0.54466684
   0.38888889  0.55555556  0.58765705
Direct configuration=     3
   0.44444933  0.44443468  0.07902988
   0.44439189  0.77787198  0.07898242
   0.44449130  0.11109604  0.07897765
   0.77780808  0.44442838  0.07895049
   0.77784587  0.77764159  0.07897767
   0.77774599  0.11109604  0.07897765
   0.11109687  0.44442838  0.07895049
   0.11106946  0.77787198  0.07898242
   0.11111629  0.11110075  0.07896584
   0.55557843  0.55560586  0.15717290
   0.55557154  0.88884802  0.15712248
   0.55556820  0.22219692  0.15713601
   0.88889594  0.55554146  0.15714321
   0.88891377  0.88884802  0.15712248
   0.88891144  0.22224059  0.15712922
   0.22214904  0.55560586  0.15717290
   0.22220483  0.88892367  0.15715685
   0.22218130  0.22224059  0.15712922
   0.66661774  0.66671661  0.23381221
   0.66668873 -0.00004413  0.23380999
   0.66656504  0.33340092  0.23380174
  -0.00000102  0.66671661  0.23381221
  -0.00001755  0.00000817  0.23379791
   0.00003937  0.33325460  0.23378678
   0.33330421  0.66672491  0.23378644
   0.33334271  0.00000817  0.23379791
   0.33336737  0.33340092  0.23380174
   0.77778137  0.77777059  0.31167428
   0.77778073  0.11113855  0.31170939
   0.77773238  0.44444620  0.31171673
   0.11117092  0.77776546  0.31173560
   0.11110876  0.11111582  0.31175921
   0.11115476  0.44444620  0.31171673
   0.44439696  0.77776546  0.31173560
   0.44441405  0.11113855  0.31170939
   0.44442846  0.44447642  0.31173142
   0.88892298  0.88886053  0.38969158
   0.88890091  0.22220499  0.38967420
   0.88890465  0.55552403  0.38966598
   0.22227893  0.88877548  0.38970231
   0.22222743  0.22220499  0.38967420
   0.22227878  0.55551606  0.38962957
   0.55554982  0.88886053  0.38969158
   0.55549336  0.22234661  0.38973327
   0.55553849  0.55551606  0.38962957
  -0.00004542  0.00002145  0.46637173
   0.00003711  0.33325912  0.46632296
  -0.00010643  0.66676961  0.46632689
   0.33335731  0.00002145  0.46637173
   0.33327969  0.33343089  0.46633180
   0.33345120  0.66643094  0.46656021
   0.66666791 -0.00000249  0.46627809
   0.66662275  0.33343089  0.46633180
   0.66667015  0.66676961  0.46632689
   0.11112606  0.11108121  0.54447775
   0.11112349  0.44441963  0.54452501
   0.11130603  0.77765925  0.54452329
   0.44446813  0.11111211  0.54449146
   0.44248053  0.44837228  0.54755720
   0.44436806  0.77765925  0.54452329
   0.77775310  0.11111211  0.54449146
   0.77779021  0.44441963  0.54452501
   0.77781156  0.77771021  0.54448158
   0.27776171  0.27776354  0.07895049
   0.27776802  0.61111599  0.07902988
   0.27776171  0.94447475  0.07895049
   0.61120532  0.27773613  0.07898242
   0.61120532  0.61105855  0.07898242
   0.61097492  0.94451254  0.07897767
   0.94443409  0.27778296  0.07896584
   0.94442937  0.61115797  0.07897765
   0.94442937  0.94441266  0.07897765
   0.38893919  0.38881571  0.15717290
   0.38893919  0.72224510  0.15717290
   0.38887479  0.05556260  0.15714321
   0.72225700  0.38887150  0.15715685
   0.72218135  0.72223821  0.15712248
   0.72218135  0.05558044  0.15712248
   0.05557393  0.38884796  0.15712922
   0.05553026  0.72223487  0.15713601
   0.05557393  0.05557811  0.15712922
   0.50005824  0.49997088  0.23378644
   0.50004994  0.83328441  0.23381221
   0.50004994  0.16666565  0.23381221
   0.83334151  0.50000938  0.23379791
   0.83328921  0.83335540  0.23380999
   0.83334151  0.16664912  0.23379791
   0.16673426  0.50003403  0.23380174
   0.16673426  0.83323171  0.23380174
   0.16658793  0.16670603  0.23378678
   0.61109879  0.61106362  0.31173560
   0.61110392  0.94444804  0.31167428
   0.61109879  0.27783759  0.31173560
   0.94447188  0.61108072  0.31170939
   0.94447188  0.94444740  0.31170939
   0.94444915  0.27777542  0.31175921
   0.27780975  0.61109513  0.31173142
   0.27777953  0.94439904  0.31171673
   0.27777953  0.27782142  0.31171673
   0.72219386  0.72221649  0.38969158
   0.72219386  0.05558965  0.38969158
   0.72210881  0.38894559  0.38970231
   0.05567995  0.72216003  0.38973327
   0.05553833  0.05556758  0.38967420
   0.05553833  0.38889409  0.38967420
   0.38884940  0.72220516  0.38962957
   0.38885737  0.05557132  0.38966598
   0.38884940  0.38894544  0.38962957
   0.83333084  0.83333458  0.46627809
   0.83335478  0.16662124  0.46637173
   0.83335478  0.50002398  0.46637173
   0.16676422  0.83328942  0.46633180
   0.16659245  0.16670377  0.46632296
   0.16676422  0.49994636  0.46633180
   0.50010295  0.83333682  0.46632689
   0.50010295  0.16656023  0.46632689
   0.49976427  0.50011786  0.46656021
   0.94444544  0.94441977  0.54449146
   0.94441455  0.27779273  0.54447775
   0.94444544  0.61113479  0.54449146
   0.27775296  0.94445688  0.54452501
   0.27775296  0.27779016  0.54452501
   0.28170561  0.60914720  0.54755720
   0.61104354  0.94447823  0.54448158
   0.61099258  0.27797270  0.54452329
   0.61099258  0.61103472  0.54452329
   0.27773340  0.44440007  0.07894066
   0.27773340  0.77786653  0.07894066
   0.27775199  0.11112401  0.07896607
   0.61119986  0.44440007  0.07894066
   0.61110730  0.77777397  0.07897510
   0.61110730  0.11111873  0.07897510
   0.94445734  0.44441865  0.07896607
   0.94445207  0.77777397  0.07897510
   0.94445734  0.11112401  0.07896607
   0.38888889  0.55555556  0.15719115
   0.38888941  0.88889992  0.15712259
   0.38888941  0.22221068  0.15712259
   0.72223325  0.55555607  0.15712259
   0.72222222  0.88888889  0.15712698
   0.72223325  0.22221068  0.15712259
   0.05554401  0.55555607  0.15712259
   0.05554401  0.88889992  0.15712259
   0.05555556  0.22222222  0.15715887
   0.49999954  0.66666620  0.23378861
   0.50009408 -0.00004704  0.23379081
   0.49999954  0.33333426  0.23378861
   0.83328629  0.66676075  0.23379081
   0.83328629 -0.00004704  0.23379081
   0.83337464  0.33331268  0.23377329
   0.16666759  0.66666620  0.23378861
   0.16664601  0.00004130  0.23377329
   0.16664601  0.33331268  0.23377329
   0.61114213  0.77780880  0.31166277
   0.61114213  0.11104907  0.31166277
   0.61110895  0.44444553  0.31171988
   0.94438240  0.77780880  0.31166277
   0.94447706  0.11114373  0.31174604
   0.94447706  0.44437921  0.31174604
   0.27777886  0.77777561  0.31171988
   0.27771255  0.11114373  0.31174604
   0.27777886  0.44444553  0.31171988
   0.72222222  0.88888889  0.38979211
   0.72210918  0.22232085  0.38965374
   0.72210918  0.55556998  0.38965374
   0.05565418  0.88877584  0.38965374
   0.05555556  0.22222222  0.38969415
   0.05565418  0.55556998  0.38965374
   0.38890331  0.88877584  0.38965374
   0.38890331  0.22232085  0.38965374
   0.38888889  0.55555556  0.38969298
   0.83335826  0.00002492  0.46631153
   0.83344114  0.33327943  0.46632088
   0.83335826  0.66661682  0.46631153
   0.16661276  0.00010781  0.46632088
   0.16661276  0.33327943  0.46632088
   0.16638035  0.66680983  0.46611176
   0.49995016  0.00002492  0.46631153
   0.50014316  0.33304701  0.46611176
   0.50014316  0.66680983  0.46611176
   0.94445054  0.11111721  0.54450295
   0.94445054  0.44443225  0.54450295
   0.94453424  0.77773288  0.54451507
   0.27776559  0.11111721  0.54450295
   0.27742463  0.44409130  0.54419972
   0.27742463  0.77848407  0.54419972
   0.61106621  0.11120091  0.54451507
   0.61181740  0.44409130  0.54419972
   0.61106621  0.77773288  0.54451507
   0.44439189  0.27773613  0.07898242
   0.44444933  0.61111599  0.07902988
   0.44449130  0.94441266  0.07897765
   0.77780808  0.27776354  0.07895049
   0.77774599  0.61115797  0.07897765
   0.77784587  0.94451254  0.07897767
   0.11111629  0.27778296  0.07896584
   0.11106946  0.61105855  0.07898242
   0.11109687  0.94447475  0.07895049
   0.55557843  0.38881571  0.15717290
   0.55556820  0.72223487  0.15713601
   0.55557154  0.05558044  0.15712248
   0.88891144  0.38884796  0.15712922
   0.88891377  0.72223821  0.15712248
   0.88889594  0.05556260  0.15714321
   0.22220483  0.38887150  0.15715685
   0.22214904  0.72224510  0.15717290
   0.22218130  0.05557811  0.15712922
   0.66656504  0.50003403  0.23380174
   0.66668873  0.83335540  0.23380999
   0.66661774  0.16666565  0.23381221
  -0.00001755  0.50000938  0.23379791
  -0.00000102  0.83328441  0.23381221
   0.00003937  0.16670603  0.23378678
   0.33330421  0.49997088  0.23378644
   0.33336737  0.83323171  0.23380174
   0.33334271  0.16664912  0.23379791
   0.77778073  0.61108072  0.31170939
   0.77778137  0.94444804  0.31167428
   0.77773238  0.27782142  0.31171673
   0.11117092  0.61106362  0.31173560
   0.11115476  0.94439904  0.31171673
   0.11110876  0.27777542  0.31175921
   0.44442846  0.61109513  0.31173142
   0.44441405  0.94444740  0.31170939
   0.44439696  0.27783759  0.31173560
   0.88892298  0.72221649  0.38969158
   0.88890465  0.05557132  0.38966598
   0.88890091  0.38889409  0.38967420
   0.22227878  0.72220516  0.38962957
   0.22222743  0.05556758  0.38967420
   0.22227893  0.38894559  0.38970231
   0.55549336  0.72216003  0.38973327
   0.55554982  0.05558965  0.38969158
   0.55553849  0.38894544  0.38962957
  -0.00010643  0.83333682  0.46632689
   0.00003711  0.16670377  0.46632296
  -0.00004542  0.50002398  0.46637173
   0.33327969  0.83328942  0.46633180
   0.33335731  0.16662124  0.46637173
   0.33345120  0.50011786  0.46656021
   0.66666791  0.83333458  0.46627809
   0.66667015  0.16656023  0.46632689
   0.66662275  0.49994636  0.46633180
   0.11112349  0.94445688  0.54452501
   0.11112606  0.27779273  0.54447775
   0.11130603  0.61103472  0.54452329
   0.44446813  0.94441977  0.54449146
   0.44436806  0.27797270  0.54452329
   0.44248053  0.60914720  0.54755720
   0.77781156  0.94447823  0.54448158
   0.77779021  0.27779016  0.54452501
   0.77775310  0.61113479  0.54449146
   0.38888889  0.55555556  0.58077905
Direct configuration=     4
   0.44444987  0.44443359  0.07906281
   0.44438602  0.77788250  0.07901005
   0.44449653  0.11109436  0.07900475
   0.77781146  0.44442659  0.07897456
   0.77785347  0.77762640  0.07900478
   0.77774245  0.11109436  0.07900475
   0.11109528  0.44442659  0.07897456
   0.11106482  0.77788250  0.07901005
   0.11111687  0.11109960  0.07899162
   0.55558099  0.55561147  0.15718931
   0.55557333  0.88884346  0.15713327
   0.55556962  0.22219410  0.15714830
   0.88889672  0.55553988  0.15715631
   0.88891655  0.88884346  0.15713327
   0.88891396  0.22224264  0.15714076
   0.22214087  0.55561147  0.15718931
   0.22220289  0.88892755  0.15717147
   0.22217673  0.22224264  0.15714076
   0.66661228  0.66672218  0.23381832
   0.66669119 -0.00004905  0.23381586
   0.66655371  0.33340846  0.23380668
  -0.00000113  0.66672218  0.23381832