  398  398   40    1
  0.1524478E+02  0.1441508E-08  0.1441508E-08  0.3371625E-08  0.2000000E-15
   1.0000000000000000E-004
  CAR 
 NiAl                                    
   2064      2   1238
 
  0.1262379E-14  0.1262379E-14  0.1262379E-14  0.2500000E+00
    1      -30.609335   1.000000
    2      -29.794339   1.000000
    3      -29.794333   1.000000
    4      -29.681760   1.000000
    5      -29.351361   1.000000
    6      -29.351354   1.000000
    7      -28.636843   1.000000
    8      -28.449992   1.000000
    9      -28.449986   1.000000
   10      -28.358242   1.000000
   11      -28.234497   1.000000
   12      -28.219256   1.000000
   13      -28.219253   1.000000
   14      -27.549313   1.000000
   15      -27.549310   1.000000
   16      -27.435922   1.000000
   17      -27.079473   1.000000
   18      -27.071539   1.000000
   19      -27.071528   1.000000
   20      -26.420871   1.000000
   21      -26.420861   1.000000
   22      -26.411296   1.000000
   23      -26.296389   1.000000
   24      -26.296386   1.000000
   25      -26.250882   1.000000
   26      -26.125515   1.000000
   27      -26.063886   1.000000
   28      -26.063876   1.000000
   29      -25.783612   1.000000
   30      -25.783183   1.000000
   31      -25.783167   1.000000
   32      -25.580045   1.000000
   33      -25.549650   1.000000
   34      -25.549646   1.000000
   35      -25.014127   1.000000
   36      -25.014119   1.000000
   37      -24.938085   1.000000
   38      -24.865656   1.000000
   39      -24.865649   1.000000
   40      -24.679894   1.000000
   41      -24.415240   1.000000
   42      -24.415234   1.000000
   43      -24.261886   1.000000
   44      -24.157322   1.000000
   45      -24.157318   1.000000
   46      -23.875087   1.000000
   47      -23.660840   1.000000
   48      -23.485276   1.000000
   49      -23.485266   1.000000
   50      -23.389878   1.000000
   51      -23.215845   1.000000
   52      -23.215841   1.000000
   53      -23.198289   1.000000
   54      -22.947074   1.000000
   55      -22.947064   1.000000
   56      -22.405565   1.000000
   57      -22.405556   1.000000
   58      -22.334703   1.000000
   59      -21.606578   1.000000
   60      -21.606555   1.000000
   61      -21.462165   1.000000
   62      -20.547346   1.000000
   63      -20.154355   1.000000
   64      -20.095597   1.000000
   65      -20.095591   1.000000
   66      -20.004860   1.000000
   67      -20.004857   1.000000
   68      -19.995786   1.000000
   69      -19.990159   1.000000
   70      -19.653737   1.000000
   71      -19.630642   1.000000
   72      -19.630639   1.000000
   73      -19.556921   1.000000
   74      -19.528827   1.000000
   75      -19.528825   1.000000
   76      -19.526418   1.000000
   77      -19.427938   1.000000
   78      -19.334089   1.000000
   79      -19.334079   1.000000
   80      -19.283544   1.000000
   81      -19.283533   1.000000
   82      -19.216925   1.000000
   83      -19.216916   1.000000
   84      -19.211325   1.000000
   85      -19.192364   1.000000
   86      -19.141968   1.000000
   87      -19.103428   1.000000
   88      -19.103421   1.000000
   89      -19.096666   1.000000
   90      -19.077970   1.000000
   91      -19.077965   1.000000
   92      -19.043691   1.000000
   93      -18.983509   1.000000
   94      -18.843301   1.000000
   95      -18.843285   1.000000
   96      -18.822270   1.000000
   97      -18.815347   1.000000
   98      -18.790161   1.000000
   99      -18.790148   1.000000
  100      -18.712581   1.000000
  101      -18.635902   1.000000
  102      -18.635878   1.000000
  103      -18.588609   1.000000
  104      -18.588584   1.000000
  105      -18.488732   1.000000
  106      -18.488724   1.000000
  107      -18.484986   1.000000
  108      -18.439688   1.000000
  109      -18.433437   1.000000
  110      -18.433427   1.000000
  111      -18.414315   1.000000
  112      -18.371492   1.000000
  113      -18.371483   1.000000
  114      -18.370899   1.000000
  115      -18.346034   1.000000
  116      -18.338832   1.000000
  117      -18.338826   1.000000
  118      -18.315070   1.000000
  119      -18.315063   1.000000
  120      -18.307900   1.000000
  121      -18.296218   1.000000
  122      -18.296213   1.000000
  123      -18.296201   1.000000
  124      -18.283336   1.000000
  125      -18.283323   1.000000
  126      -18.269522   1.000000
  127      -18.243150   1.000000
  128      -18.237145   1.000000
  129      -18.237126   1.000000
  130      -18.217244   1.000000
  131      -18.217219   1.000000
  132      -18.138900   1.000000
  133      -18.138890   1.000000
  134      -18.137946   1.000000
  135      -18.097377   1.000000
  136      -18.097358   1.000000
  137      -18.084882   1.000000
  138      -18.069988   1.000000
  139      -18.060388   1.000000
  140      -18.060379   1.000000
  141      -18.027516   1.000000
  142      -18.016026   1.000000
  143      -18.016002   1.000000
  144      -18.006394   1.000000
  145      -18.006364   1.000000
  146      -17.987362   1.000000
  147      -17.945991   1.000000
  148      -17.915744   1.000000
  149      -17.915735   1.000000
  150      -17.901535   1.000000
  151      -17.901527   1.000000
  152      -17.891744   1.000000
  153      -17.891719   1.000000
  154      -17.872939   1.000000
  155      -17.863906   1.000000
  156      -17.845243   1.000000
  157      -17.845232   1.000000
  158      -17.836234   1.000000
  159      -17.828017   1.000000
  160      -17.819989   1.000000
  161      -17.819974   1.000000
  162      -17.805039   1.000000
  163      -17.796928   1.000000
  164      -17.787746   1.000000
  165      -17.787733   1.000000
  166      -17.757585   1.000000
  167      -17.757570   1.000000
  168      -17.756896   1.000000
  169      -17.731577   1.000000
  170      -17.731553   1.000000
  171      -17.714772   1.000000
  172      -17.714761   1.000000
  173      -17.710647   1.000000
  174      -17.691246   1.000000
  175      -17.668606   1.000000
  176      -17.656947   1.000000
  177      -17.656943   1.000000
  178      -17.646427   1.000000
  179      -17.646411   1.000000
  180      -17.632911   1.000000
  181      -17.632898   1.000000
  182      -17.618398   1.000000
  183      -17.603081   1.000000
  184      -17.603074   1.000000
  185      -17.590945   1.000000
  186      -17.587383   1.000000
  187      -17.587374   1.000000
  188      -17.569364   1.000000
  189      -17.569361   1.000000
  190      -17.550201   1.000000
  191      -17.430537   1.000000
  192      -17.430522   1.000000
  193      -17.406559   1.000000
  194      -17.351812   1.000000
  195      -17.310021   1.000000
  196      -17.304276   1.000000
  197      -17.270403   1.000000
  198      -17.270386   1.000000
  199      -17.266671   1.000000
  200      -17.266661   1.000000
  201      -17.262560   1.000000
  202      -17.241792   1.000000
  203      -17.241786   1.000000
  204      -17.215020   1.000000
  205      -17.215017   1.000000
  206      -17.209077   1.000000
  207      -17.142726   1.000000
  208      -17.142718   1.000000
  209      -17.140883   1.000000
  210      -17.139653   1.000000
  211      -17.139197   1.000000
  212      -17.139193   1.000000
  213      -17.135931   1.000000
  214      -17.135898   1.000000
  215      -17.060215   1.000000
  216      -17.055252   1.000000
  217      -17.055243   1.000000
  218      -17.041704   1.000000
  219      -17.038616   1.000000
  220      -17.038600   1.000000
  221      -17.037276   1.000000
  222      -17.034836   1.000000
  223      -17.034822   1.000000
  224      -17.009812   1.000000
  225      -17.009776   1.000000
  226      -16.959847   1.000000
  227      -16.957078   1.000000
  228      -16.957069   1.000000
  229      -16.944546   1.000000
  230      -16.944476   1.000000
  231      -16.892636   1.000000
  232      -16.762710   1.000000
  233      -16.762706   1.000000
  234      -16.722467   1.000000
  235      -16.722445   1.000000
  236      -16.710019   1.000000
  237      -16.646989   1.000000
  238      -16.646979   1.000000
  239      -16.549124   1.000000
  240      -16.536195   1.000000
  241      -16.536134   1.000000
  242      -16.410812   1.000000
  243      -16.173692   1.000000
  244      -15.940710   1.000000
  245      -15.940708   1.000000
  246      -15.424790   1.000000
  247      -15.424777   1.000000
  248      -15.279876   1.000000
  249      -15.188398   1.000000
  250      -15.188386   1.000000
  251      -14.940301   1.000000
  252      -14.679908   1.000000
  253      -14.679899   1.000000
  254      -14.648408   1.000000
  255      -14.593336   1.000000
  256      -14.593324   1.000000
  257      -14.108095   1.000000
  258      -13.934525   1.000000
  259      -13.934509   1.000000
  260      -13.847631   1.000000
  261      -13.638468   1.000000
  262      -13.638458   1.000000
  263      -13.549133   1.000000
  264      -13.414442   1.000000
  265      -13.414424   1.000000
  266      -13.165822   1.000000
  267      -13.018735   1.000000
  268      -12.879862   1.000000
  269      -12.879847   1.000000
  270      -12.848788   1.000000
  271      -12.830706   1.000000
  272      -12.830690   1.000000
  273      -12.673743   1.000000
  274      -12.630420   1.000000
  275      -12.630312   1.000000
  276      -12.571702   1.000000
  277      -12.355410   1.000000
  278      -12.307040   1.000000
  279      -12.307039   1.000000
  280      -12.157471   1.000000
  281      -12.117231   1.000000
  282      -12.117227   1.000000
  283      -12.028800   1.000000
  284      -12.000067   1.000000
  285      -11.999999   1.000000
  286      -11.779931   1.000000
  287      -11.779882   1.000000
  288      -11.639086   1.000000
  289      -11.627022   1.000000
  290      -11.627017   1.000000
  291      -11.582903   1.000000
  292      -11.488218   1.000000
  293      -11.488131   1.000000
  294      -11.204010   1.000000
  295      -11.162517   1.000000
  296      -11.162493   1.000000
  297      -11.106386   1.000000
  298      -11.057231   1.000000
  299      -11.057123   1.000000
  300      -10.996278   1.000000
  301      -10.957451   1.000000
  302      -10.957438   1.000000
  303      -10.801591   1.000000
  304      -10.698769   1.000000
  305      -10.527071   1.000000
  306      -10.527040   1.000000
  307      -10.325541   1.000000
  308      -10.325535   1.000000
  309      -10.313682   1.000000
  310      -10.286542   1.000000
  311      -10.216613   1.000000
  312      -10.216597   1.000000
  313      -10.163767   1.000000
  314      -10.163692   1.000000
  315      -10.021961   1.000000
  316       -9.777710   1.000000
  317       -9.777681   1.000000
  318       -9.735282   1.000000
  319       -9.670254   1.000000
  320       -9.670183   1.000000
  321       -9.573878   1.000000
  322       -9.573840   1.000000
  323       -9.477321   1.000000
  324       -9.405247   1.000000
  325       -9.380524   1.000000
  326       -9.312050   1.000000
  327       -9.312044   1.000000
  328       -9.311427   1.000000
  329       -9.040603   1.000000
  330       -9.040540   1.000000
  331       -9.027427   1.000000
  332       -8.845817   1.000000
  333       -8.845782   1.000000
  334       -8.750525   1.000000
  335       -8.750508   1.000000
  336       -8.677114   1.000000
  337       -8.672652   1.000000
  338       -8.672615   1.000000
  339       -8.556159   1.000000
  340       -8.556132   1.000000
  341       -8.471735   1.000000
  342       -8.415479   1.000000
  343       -8.249443   1.000000
  344       -8.156730   1.000000
  345       -8.156631   1.000000
  346       -7.880603   1.000000
  347       -7.880590   1.000000
  348       -7.783139   1.000000
  349       -7.723366   1.000000
  350       -7.723212   1.000000
  351       -7.690194   1.000000
  352       -7.670946   1.000000
  353       -7.670786   1.000000
  354       -7.629150   1.000000
  355       -7.625333   1.000000
  356       -7.584914   1.000000
  357       -7.518251   1.000000
  358       -7.518082   1.000000
  359       -7.516372   1.000000
  360       -7.474372   1.000000
  361       -7.470757   1.000000
  362       -7.470601   1.000000
  363       -7.398980   1.000000
  364       -7.398937   1.000000
  365       -7.376902   1.000000
  366       -7.270169   1.000000
  367       -7.250886   1.000000
  368       -7.250786   1.000000
  369       -7.190690   1.000000
  370       -7.179155   1.000000
  371       -7.179091   1.000000
  372       -7.171584   1.000000
  373       -7.158733   1.000000
  374       -7.158687   1.000000
  375       -7.152342   1.000000
  376       -7.118896   1.000000
  377       -7.101804   1.000000
  378       -7.101765   1.000000
  379       -7.092103   1.000000
  380       -7.092059   1.000000
  381       -7.067534   1.000000
  382       -7.053341   1.000000
  383       -7.053298   1.000000
  384       -7.043603   1.000000
  385       -7.043536   1.000000
  386       -7.020987   1.000000
  387       -7.011867   1.000000
  388       -6.885603   1.000000
  389       -6.885523   1.000000
  390       -6.857899   1.000000
  391       -6.857897   1.000000
  392       -6.799636   1.000000
  393       -6.799596   1.000000
  394       -6.790875   1.000000
  395       -6.773170   1.000000
  396       -6.761677   1.000000
  397       -6.761644   1.000000
  398       -6.734917   1.000000
  399       -6.701209   1.000000
  400       -6.701158   1.000000
  401       -6.692045   1.000000
  402       -6.691987   1.000000
  403       -6.686255   1.000000
  404       -6.649284   1.000000
  405       -6.640447   1.000000
  406       -6.640364   1.000000
  407       -6.626362   1.000000
  408       -6.573414   1.000000
  409       -6.573330   1.000000
  410       -6.546395   1.000000
  411       -6.518886   1.000000
  412       -6.518823   1.000000
  413       -6.486711   1.000000
  414       -6.486687   1.000000
  415       -6.477235   1.000000
  416       -6.468997   1.000000
  417       -6.460242   1.000000
  418       -6.445214   1.000000
  419       -6.445171   1.000000
  420       -6.436601   1.000000
  421       -6.398638   1.000000
  422       -6.355658   1.000000
  423       -6.335220   1.000000
  424       -6.306094   1.000000
  425       -6.306013   1.000000
  426       -6.260384   1.000000
  427       -6.249867   1.000000
  428       -6.240923   1.000000
  429       -6.240881   1.000000
  430       -6.176257   1.000000
  431       -6.158721   1.000000
  432       -6.158652   1.000000
  433       -6.141483   1.000000
  434       -6.141431   1.000000
  435       -6.135913   1.000000
  436       -6.105645   1.000000
  437       -6.105608   1.000000
  438       -6.088119   1.000000
  439       -6.058180   1.000000
  440       -6.043332   1.000000
  441       -6.043299   1.000000
  442       -5.989287   1.000000
  443       -5.953375   1.000000
  444       -5.941243   1.000000
  445       -5.941191   1.000000
  446       -5.911902   1.000000
  447       -5.911812   1.000000
  448       -5.886968   1.000000
  449       -5.886915   1.000000
  450       -5.882742   1.000000
  451       -5.851011   1.000000
  452       -5.849330   1.000000
  453       -5.824678   1.000000
  454       -5.824666   1.000000
  455       -5.750098   1.000000
  456       -5.747905   1.000000
  457       -5.747885   1.000000
  458       -5.744000   1.000000
  459       -5.724134   1.000000
  460       -5.713622   1.000000
  461       -5.713560   1.000000
  462       -5.698724   1.000000
  463       -5.698676   1.000000
  464       -5.691915   1.000000
  465       -5.691870   1.000000
  466       -5.662605   1.000000
  467       -5.642745   1.000000
  468       -5.635267   1.000000
  469       -5.635231   1.000000
  470       -5.602994   1.000000
  471       -5.602948   1.000000
  472       -5.580284   1.000000
  473       -5.580277   1.000000
  474       -5.540458   1.000000
  475       -5.540431   1.000000
  476       -5.539524   1.000000
  477       -5.515372   1.000000
  478       -5.515339   1.000000
  479       -5.511761   1.000000
  480       -5.493852   1.000000
  481       -5.493804   1.000000
  482       -5.480495   1.000000
  483       -5.476433   1.000000
  484       -5.455117   1.000000
  485       -5.455092   1.000000
  486       -5.439366   1.000000
  487       -5.439327   1.000000
  488       -5.429685   1.000000
  489       -5.429064   1.000000
  490       -5.429032   1.000000
  491       -5.383939   1.000000
  492       -5.383910   1.000000
  493       -5.371912   1.000000
  494       -5.371888   1.000000
  495       -5.332627   1.000000
  496       -5.331348   1.000000
  497       -5.331332   1.000000
  498       -5.302788   1.000000
  499       -5.300901   1.000000
  500       -5.300879   1.000000
  501       -5.267526   1.000000
  502       -5.264716   1.000000
  503       -5.264694   1.000000
  504       -5.219497   1.000000
  505       -5.219474   1.000000
  506       -5.219209   1.000000
  507       -5.202950   1.000000
  508       -5.182022   1.000000
  509       -5.181988   1.000000
  510       -5.150094   1.000000
  511       -5.150089   1.000000
  512       -5.129604   1.000000
  513       -5.113104   1.000000
  514       -5.095905   1.000000
  515       -5.064273   1.000000
  516       -5.051749   1.000000
  517       -5.051713   1.000000
  518       -5.043372   1.000000
  519       -5.043281   1.000000
  520       -5.018030   1.000000
  521       -4.997968   1.000000
  522       -4.997917   1.000000
  523       -4.996697   1.000000
  524       -4.989092   1.000000
  525       -4.989036   1.000000
  526       -4.946868   1.000000
  527       -4.938888   1.000000
  528       -4.936716   1.000000
  529       -4.936700   1.000000
  530       -4.914607   1.000000
  531       -4.914587   1.000000
  532       -4.911484   1.000000
  533       -4.893756   1.000000
  534       -4.893748   1.000000
  535       -4.874485   1.000000
  536       -4.874436   1.000000
  537       -4.859852   1.000000
  538       -4.859794   1.000000
  539       -4.856783   1.000000
  540       -4.836096   1.000000
  541       -4.828157   1.000000
  542       -4.828129   1.000000
  543       -4.805996   1.000000
  544       -4.805961   1.000000
  545       -4.804597   1.000000
  546       -4.767680   1.000000
  547       -4.745464   1.000000
  548       -4.745437   1.000000
  549       -4.717879   1.000000
  550       -4.717868   1.000000
  551       -4.652696   1.000000
  552       -4.606124   1.000000
  553       -4.606095   1.000000
  554       -4.560616   1.000000
  555       -4.560579   1.000000
  556       -4.551906   1.000000
  557       -4.537447   1.000000
  558       -4.523010   1.000000
  559       -4.522977   1.000000
  560       -4.519124   1.000000
  561       -4.485133   1.000000
  562       -4.485073   1.000000
  563       -4.427877   1.000000
  564       -4.427849   1.000000
  565       -4.411200   1.000000
  566       -4.399090   1.000000
  567       -4.368785   1.000000
  568       -4.361765   1.000000
  569       -4.361751   1.000000
  570       -4.345527   1.000000
  571       -4.323195   1.000000
  572       -4.323152   1.000000
  573       -4.307392   1.000000
  574       -4.306760   1.000000
  575       -4.306702   1.000000
  576       -4.300272   1.000000
  577       -4.274267   1.000000
  578       -4.274239   1.000000
  579       -4.271183   1.000000
  580       -4.249963   1.000000
  581       -4.249413   1.000000
  582       -4.249378   1.000000
  583       -4.231532   1.000000
  584       -4.231509   1.000000
  585       -4.216300   1.000000
  586       -4.216274   1.000000
  587       -4.216122   1.000000
  588       -4.210385   1.000000
  589       -4.198206   1.000000
  590       -4.198196   1.000000
  591       -4.161482   1.000000
  592       -4.161457   1.000000
  593       -4.155837   1.000000
  594       -4.123568   1.000000
  595       -4.114043   1.000000
  596       -4.113977   1.000000
  597       -4.110694   1.000000
  598       -4.093837   1.000000
  599       -4.070961   1.000000
  600       -4.064758   1.000000
  601       -4.064729   1.000000
  602       -4.030590   1.000000
  603       -4.013417   1.000000
  604       -4.008275   1.000000
  605       -4.008257   1.000000
  606       -3.985433   1.000000
  607       -3.973047   1.000000
  608       -3.973020   1.000000
  609       -3.963842   1.000000
  610       -3.963787   1.000000
  611       -3.933670   1.000000
  612       -3.898152   1.000000
  613       -3.849081   1.000000
  614       -3.849049   1.000000
  615       -3.836384   1.000000
  616       -3.814344   1.000000
  617       -3.813196   1.000000
  618       -3.813118   1.000000
  619       -3.801669   1.000000
  620       -3.801634   1.000000
  621       -3.792470   1.000000
  622       -3.787441   1.000000
  623       -3.787366   1.000000
  624       -3.767747   1.000000
  625       -3.742726   1.000000
  626       -3.742673   1.000000
  627       -3.734351   1.000000
  628       -3.720361   1.000000
  629       -3.720290   1.000000
  630       -3.715732   1.000000
  631       -3.707976   1.000000
  632       -3.682977   1.000000
  633       -3.682911   1.000000
  634       -3.673518   1.000000
  635       -3.670413   1.000000
  636       -3.670303   1.000000
  637       -3.667166   1.000000
  638       -3.657625   1.000000
  639       -3.649944   1.000000
  640       -3.649912   1.000000
  641       -3.629338   1.000000
  642       -3.629203   1.000000
  643       -3.615998   1.000000
  644       -3.614258   1.000000
  645       -3.608410   1.000000
  646       -3.608302   1.000000
  647       -3.606702   1.000000
  648       -3.600115   1.000000
  649       -3.567892   1.000000
  650       -3.533270   1.000000
  651       -3.533213   1.000000
  652       -3.514353   1.000000
  653       -3.514272   1.000000
  654       -3.481509   1.000000
  655       -3.435040   1.000000
  656       -3.430084   1.000000
  657       -3.419582   1.000000
  658       -3.419525   1.000000
  659       -3.403465   1.000000
  660       -3.387265   1.000000
  661       -3.387236   1.000000
  662       -3.373896   1.000000
  663       -3.363869   1.000000
  664       -3.337315   1.000000
  665       -3.327088   1.000000
  666       -3.327040   1.000000
  667       -3.312814   1.000000
  668       -3.312772   1.000000
  669       -3.306965   1.000000
  670       -3.291630   1.000000
  671       -3.291486   1.000000
  672       -3.286525   1.000000
  673       -3.280071   1.000000
  674       -3.279985   1.000000
  675       -3.239335   1.000000
  676       -3.237989   1.000000
  677       -3.237935   1.000000
  678       -3.196732   1.000000
  679       -3.196686   1.000000
  680       -3.178691   1.000000
  681       -3.178623   1.000000
  682       -3.174333   1.000000
  683       -3.159817   1.000000
  684       -3.159765   1.000000
  685       -3.143543   1.000000
  686       -3.115114   1.000000
  687       -3.115057   1.000000
  688       -3.100905   1.000000
  689       -3.096409   1.000000
  690       -3.096358   1.000000
  691       -3.083793   1.000000
  692       -3.083768   1.000000
  693       -3.065428   1.000000
  694       -3.050738   1.000000
  695       -3.044244   1.000000
  696       -3.044179   1.000000
  697       -3.029034   1.000000
  698       -3.023437   1.000000
  699       -3.023399   1.000000
  700       -3.010521   1.000000
  701       -2.993634   1.000000
  702       -2.989095   1.000000
  703       -2.989076   1.000000
  704       -2.988478   1.000000
  705       -2.960153   1.000000
  706       -2.960114   1.000000
  707       -2.938840   1.000000
  708       -2.933873   1.000000
  709       -2.933818   1.000000
  710       -2.909743   1.000000
  711       -2.909703   1.000000
  712       -2.894934   1.000000
  713       -2.888409   1.000000
  714       -2.888337   1.000000
  715       -2.873803   1.000000
  716       -2.864071   1.000000
  717       -2.864049   1.000000
  718       -2.851755   1.000000
  719       -2.851714   1.000000
  720       -2.845794   1.000000
  721       -2.828635   1.000000
  722       -2.828606   1.000000
  723       -2.817682   1.000000
  724       -2.805302   1.000000
  725       -2.805279   1.000000
  726       -2.775756   1.000000
  727       -2.763469   1.000000
  728       -2.763402   1.000000
  729       -2.743178   1.000000
  730       -2.743104   1.000000
  731       -2.734746   1.000000
  732       -2.727086   1.000000
  733       -2.727057   1.000000
  734       -2.719053   1.000000
  735       -2.704843   1.000000
  736       -2.704777   1.000000
  737       -2.702173   1.000000
  738       -2.679527   1.000000
  739       -2.679495   1.000000
  740       -2.678160   1.000000
  741       -2.660548   1.000000
  742       -2.657435   1.000000
  743       -2.657378   1.000000
  744       -2.641756   1.000000
  745       -2.641741   1.000000
  746       -2.630661   1.000000
  747       -2.620425   1.000000
  748       -2.620339   1.000000
  749       -2.594391   1.000000
  750       -2.580643   1.000000
  751       -2.547915   1.000000
  752       -2.547857   1.000000
  753       -2.535760   1.000000
  754       -2.535715   1.000000
  755       -2.518494   1.000000
  756       -2.518470   1.000000
  757       -2.499558   1.000000
  758       -2.484752   1.000000
  759       -2.484676   1.000000
  760       -2.477796   1.000000
  761       -2.477682   1.000000
  762       -2.468266   1.000000
  763       -2.453645   1.000000
  764       -2.453600   1.000000
  765       -2.448991   1.000000
  766       -2.433173   1.000000
  767       -2.433125   1.000000
  768       -2.413455   1.000000
  769       -2.408601   1.000000
  770       -2.403681   1.000000
  771       -2.403625   1.000000
  772       -2.393816   1.000000
  773       -2.390148   1.000000
  774       -2.390115   1.000000
  775       -2.374397   1.000000
  776       -2.373130   1.000000
  777       -2.373082   1.000000
  778       -2.361610   1.000000
  779       -2.354792   1.000000
  780       -2.354763   1.000000
  781       -2.335840   1.000000
  782       -2.321068   1.000000
  783       -2.318107   1.000000
  784       -2.318043   1.000000
  785       -2.311179   1.000000
  786       -2.311150   1.000000
  787       -2.277755   1.000000
  788       -2.277709   1.000000
  789       -2.274298   1.000000
  790       -2.253015   1.000000
  791       -2.248102   1.000000
  792       -2.248061   1.000000
  793       -2.231157   1.000000
  794       -2.231073   1.000000
  795       -2.221744   1.000000
  796       -2.221714   1.000000
  797       -2.213559   1.000000
  798       -2.213421   1.000000
  799       -2.212474   1.000000
  800       -2.202857   1.000000
  801       -2.183846   1.000000
  802       -2.183798   1.000000
  803       -2.181762   1.000000
  804       -2.173887   1.000000
  805       -2.153590   1.000000
  806       -2.153554   1.000000
  807       -2.145298   1.000000
  808       -2.145262   1.000000
  809       -2.124009   1.000000
  810       -2.118587   1.000000
  811       -2.118506   1.000000
  812       -2.111403   1.000000
  813       -2.092272   1.000000
  814       -2.073318   1.000000
  815       -2.073244   1.000000
  816       -2.070921   1.000000
  817       -2.053639   1.000000
  818       -2.053470   1.000000
  819       -2.048998   1.000000
  820       -2.033682   1.000000
  821       -2.030736   1.000000
  822       -2.030642   1.000000
  823       -2.001677   1.000000
  824       -2.001653   1.000000
  825       -1.991798   1.000000
  826       -1.982783   1.000000
  827       -1.982771   1.000000
  828       -1.982304   1.000000
  829       -1.949319   1.000000
  830       -1.949307   1.000000
  831       -1.948066   1.000000
  832       -1.919624   1.000000
  833       -1.909874   1.000000
  834       -1.909866   1.000000
  835       -1.893900   1.000000
  836       -1.870151   1.000000
  837       -1.870041   1.000000
  838       -1.868859   1.000000
  839       -1.854006   1.000000
  840       -1.853806   1.000000
  841       -1.842752   1.000000
  842       -1.819860   1.000000
  843       -1.819781   1.000000
  844       -1.814455   1.000000
  845       -1.801172   1.000000
  846       -1.784037   1.000000
  847       -1.783995   1.000000
  848       -1.772725   1.000000
  849       -1.754067   1.000000
  850       -1.754012   1.000000
  851       -1.747828   1.000000
  852       -1.733728   1.000000
  853       -1.733659   1.000000
  854       -1.720746   1.000000
  855       -1.708992   1.000000
  856       -1.708941   1.000000
  857       -1.691313   1.000000
  858       -1.691275   1.000000
  859       -1.689977   1.000000
  860       -1.673881   1.000000
  861       -1.666289   1.000000
  862       -1.666238   1.000000
  863       -1.653126   1.000000
  864       -1.652981   1.000000
  865       -1.652208   1.000000
  866       -1.640014   1.000000
  867       -1.640000   1.000000
  868       -1.618328   1.000000
  869       -1.618234   1.000000
  870       -1.609669   1.000000
  871       -1.600039   1.000000
  872       -1.599960   1.000000
  873       -1.585068   1.000000
  874       -1.578323   1.000000
  875       -1.578280   1.000000
  876       -1.558267   1.000000
  877       -1.558221   1.000000
  878       -1.546540   1.000000
  879       -1.546449   1.000000
  880       -1.544500   1.000000
  881       -1.528736   1.000000
  882       -1.528727   1.000000
  883       -1.509425   1.000000
  884       -1.488487   1.000000
  885       -1.480178   1.000000
  886       -1.480172   1.000000
  887       -1.474743   1.000000
  888       -1.472615   1.000000
  889       -1.472394   1.000000
  890       -1.461683   1.000000
  891       -1.461639   1.000000
  892       -1.436796   1.000000
  893       -1.436735   1.000000
  894       -1.425056   1.000000
  895       -1.387677   1.000000
  896       -1.387553   1.000000
  897       -1.377289   1.000000
  898       -1.359171   1.000000
  899       -1.358883   1.000000
  900       -1.332371   1.000000
  901       -1.332333   1.000000