<?xml version="1.0" encoding="ISO-8859-1"?>
<modeling>
 <generator>
  <i name="program" type="string">vasp </i>
  <i name="version" type="string">6.2.1  </i>
  <i name="subversion" type="string">16May21 (build May 12 2022 08:28:04) complex                          parallel </i>
  <i name="platform" type="string">LinuxPGI </i>
  <i name="date" type="string">2022 07 12 </i>
  <i name="time" type="string">04:41:20 </i>
 </generator>
 <incar>
  <i type="string" name="SYSTEM">NiAl</i>
  <i type="int" name="ISTART">     0</i>
  <i type="int" name="NELMIN">     6</i>
  <i type="int" name="IBRION">     2</i>
  <i name="EDIFF">      0.00000500</i>
  <i type="int" name="NSW">    40</i>
  <i type="int" name="ISIF">     0</i>
  <i name="ENCUT">    360.00000000</i>
  <i name="POTIM">      0.20000000</i>
  <i type="string" name="LREAL">Auto</i>
  <i type="logical" name="LPLANE"> T  </i>
  <i type="int" name="ISMEAR">     0</i>
  <i name="SIGMA">      0.05000000</i>
  <i type="logical" name="LWAVE"> F  </i>
  <i type="logical" name="LCHARG"> F  </i>
  <i type="int" name="IVDW">    12</i>
 </incar>
 <primitive_cell>
  <structure name="primitive_cell" >
   <crystal>
    <varray name="basis" >
     <v>      14.41508400       0.00000000       0.00000000 </v>
     <v>      -7.20754200      12.48382800       0.00000000 </v>
     <v>       0.00000000       0.00000000      33.71625400 </v>
    </varray>
    <i name="volume">   6067.42296166 </i>
    <varray name="rec_basis" >
     <v>       0.06937178       0.04005182      -0.00000000 </v>
     <v>       0.00000000       0.08010363       0.00000000 </v>
     <v>       0.00000000      -0.00000000       0.02965929 </v>
    </varray>
   </crystal>
   <varray name="positions" >
    <v>       0.00000000       0.00000000       0.05753742 </v>
    <v>       0.11111100       0.22222233       0.00729916 </v>
    <v>       0.11111100       0.22222233       0.12237401 </v>
    <v>       0.22222233       0.11111100       0.07213535 </v>
    <v>       0.22222233       0.11111100       0.18721020 </v>
    <v>       0.00000000       0.00000000       0.13697194 </v>
    <v>       0.00000000       0.00000000       0.25204679 </v>
    <v>       0.11111100       0.22222233       0.20180852 </v>
    <v>       0.11111100       0.22222233       0.31688337 </v>
    <v>       0.22222233       0.11111100       0.26664471 </v>
    <v>       0.22222233       0.11111100       0.38171956 </v>
    <v>       0.00000000       0.00000000       0.33148130 </v>
    <v>       0.00000000       0.33333333       0.05753742 </v>
    <v>       0.11111100       0.55555567       0.00729916 </v>
    <v>       0.11111100       0.55555567       0.12237401 </v>
    <v>       0.22222233       0.44444433       0.07213535 </v>
    <v>       0.22222233       0.44444433       0.18721020 </v>
    <v>       0.00000000       0.33333333       0.13697194 </v>
    <v>       0.00000000       0.33333333       0.25204679 </v>
    <v>       0.11111100       0.55555567       0.20180852 </v>
    <v>       0.11111100       0.55555567       0.31688337 </v>
    <v>       0.22222233       0.44444433       0.26664471 </v>
    <v>       0.22222233       0.44444433       0.38171956 </v>
    <v>       0.00000000       0.33333333       0.33148130 </v>
    <v>       0.00000000       0.66666667       0.05753742 </v>
    <v>       0.11111100       0.88888900       0.00729916 </v>
    <v>       0.11111100       0.88888900       0.12237401 </v>
    <v>       0.22222233       0.77777767       0.07213535 </v>
    <v>       0.22222233       0.77777767       0.18721020 </v>
    <v>       0.00000000       0.66666667       0.13697194 </v>
    <v>       0.00000000       0.66666667       0.25204679 </v>
    <v>       0.11111100       0.88888900       0.20180852 </v>
    <v>       0.11111100       0.88888900       0.31688337 </v>
    <v>       0.22222233       0.77777767       0.26664471 </v>
    <v>       0.22222233       0.77777767       0.38171956 </v>
    <v>       0.00000000       0.66666667       0.33148130 </v>
    <v>       0.33333333       0.00000000       0.05753742 </v>
    <v>       0.44444433       0.22222233       0.00729916 </v>
    <v>       0.44444433       0.22222233       0.12237401 </v>
    <v>       0.55555567       0.11111100       0.07213535 </v>
    <v>       0.55555567       0.11111100       0.18721020 </v>
    <v>       0.33333333       0.00000000       0.13697194 </v>
    <v>       0.33333333       0.00000000       0.25204679 </v>
    <v>       0.44444433       0.22222233       0.20180852 </v>
    <v>       0.44444433       0.22222233       0.31688337 </v>
    <v>       0.55555567       0.11111100       0.26664471 </v>
    <v>       0.55555567       0.11111100       0.38171956 </v>
    <v>       0.33333333       0.00000000       0.33148130 </v>
    <v>       0.33333333       0.33333333       0.05753742 </v>
    <v>       0.44444433       0.55555567       0.00729916 </v>
    <v>       0.44444433       0.55555567       0.12237401 </v>
    <v>       0.55555567       0.44444433       0.07213535 </v>
    <v>       0.55555567       0.44444433       0.18721020 </v>
    <v>       0.33333333       0.33333333       0.13697194 </v>
    <v>       0.33333333       0.33333333       0.25204679 </v>
    <v>       0.44444433       0.55555567       0.20180852 </v>
    <v>       0.44444433       0.55555567       0.31688337 </v>
    <v>       0.55555567       0.44444433       0.26664471 </v>
    <v>       0.55555567       0.44444433       0.38171956 </v>
    <v>       0.33333333       0.33333333       0.33148130 </v>
    <v>       0.33333333       0.66666667       0.05753742 </v>
    <v>       0.44444433       0.88888900       0.00729916 </v>
    <v>       0.44444433       0.88888900       0.12237401 </v>
    <v>       0.55555567       0.77777767       0.07213535 </v>
    <v>       0.55555567       0.77777767       0.18721020 </v>
    <v>       0.33333333       0.66666667       0.13697194 </v>
    <v>       0.33333333       0.66666667       0.25204679 </v>
    <v>       0.44444433       0.88888900       0.20180852 </v>
    <v>       0.44444433       0.88888900       0.31688337 </v>
    <v>       0.55555567       0.77777767       0.26664471 </v>
    <v>       0.55555567       0.77777767       0.38171956 </v>
    <v>       0.33333333       0.66666667       0.33148130 </v>
    <v>       0.66666667       0.00000000       0.05753742 </v>
    <v>       0.77777767       0.22222233       0.00729916 </v>
    <v>       0.77777767       0.22222233       0.12237401 </v>
    <v>       0.88888900       0.11111100       0.07213535 </v>
    <v>       0.88888900       0.11111100       0.18721020 </v>
    <v>       0.66666667       0.00000000       0.13697194 </v>
    <v>       0.66666667       0.00000000       0.25204679 </v>
    <v>       0.77777767       0.22222233       0.20180852 </v>
    <v>       0.77777767       0.22222233       0.31688337 </v>
    <v>       0.88888900       0.11111100       0.26664471 </v>
    <v>       0.88888900       0.11111100       0.38171956 </v>
    <v>       0.66666667       0.00000000       0.33148130 </v>
    <v>       0.66666667       0.33333333       0.05753742 </v>
    <v>       0.77777767       0.55555567       0.00729916 </v>
    <v>       0.77777767       0.55555567       0.12237401 </v>
    <v>       0.88888900       0.44444433       0.07213535 </v>
    <v>       0.88888900       0.44444433       0.18721020 </v>
    <v>       0.66666667       0.33333333       0.13697194 </v>
    <v>       0.66666667       0.33333333       0.25204679 </v>
    <v>       0.77777767       0.55555567       0.20180852 </v>
    <v>       0.77777767       0.55555567       0.31688337 </v>
    <v>       0.88888900       0.44444433       0.26664471 </v>
    <v>       0.88888900       0.44444433       0.38171956 </v>
    <v>       0.66666667       0.33333333       0.33148130 </v>
    <v>       0.66666667       0.66666667       0.05753742 </v>
    <v>       0.77777767       0.88888900       0.00729916 </v>
    <v>       0.77777767       0.88888900       0.12237401 </v>
    <v>       0.88888900       0.77777767       0.07213535 </v>
    <v>       0.88888900       0.77777767       0.18721020 </v>
    <v>       0.66666667       0.66666667       0.13697194 </v>
    <v>       0.66666667       0.66666667       0.25204679 </v>
    <v>       0.77777767       0.88888900       0.20180852 </v>
    <v>       0.77777767       0.88888900       0.31688337 </v>
    <v>       0.88888900       0.77777767       0.26664471 </v>
    <v>       0.88888900       0.77777767       0.38171956 </v>
    <v>       0.66666667       0.66666667       0.33148130 </v>
    <v>       0.10204867       0.00000000       0.09725468 </v>
    <v>       0.22222233       0.00906233       0.03241810 </v>
    <v>       0.00000000       0.10204867       0.09725468 </v>
    <v>       0.23128467       0.23128467       0.09725468 </v>
    <v>       0.32427100       0.21315967       0.03241810 </v>
    <v>       0.12017367       0.11111100       0.03241810 </v>
    <v>       0.32427100       0.11111100       0.22692746 </v>
    <v>       0.11111100       0.12017367       0.16209126 </v>
    <v>       0.22222233       0.21315967       0.22692746 </v>
    <v>       0.12017367       0.00906233       0.22692746 </v>
    <v>       0.21315967       0.32427100       0.16209126 </v>
    <v>       0.00906233       0.22222233       0.16209126 </v>
    <v>       0.21315967       0.22222233       0.35660062 </v>
    <v>       0.00000000       0.23128467       0.29176404 </v>
    <v>       0.11111100       0.32427100       0.35660062 </v>
    <v>       0.00906233       0.12017367       0.35660062 </v>
    <v>       0.10204867       0.10204867       0.29176404 </v>
    <v>       0.23128467       0.00000000       0.29176404 </v>
    <v>       0.10204867       0.33333333       0.09725468 </v>
    <v>       0.22222233       0.34239567       0.03241810 </v>
    <v>       0.00000000       0.43538200       0.09725468 </v>
    <v>       0.23128467       0.56461800       0.09725468 </v>
    <v>       0.32427100       0.54649300       0.03241810 </v>
    <v>       0.12017367       0.44444433       0.03241810 </v>
    <v>       0.32427100       0.44444433       0.22692746 </v>
    <v>       0.11111100       0.45350700       0.16209126 </v>
    <v>       0.22222233       0.54649300       0.22692746 </v>
    <v>       0.12017367       0.34239567       0.22692746 </v>
    <v>       0.21315967       0.65760433       0.16209126 </v>
    <v>       0.00906233       0.55555567       0.16209126 </v>
    <v>       0.21315967       0.55555567       0.35660062 </v>
    <v>       0.00000000       0.56461800       0.29176404 </v>
    <v>       0.11111100       0.65760433       0.35660062 </v>
    <v>       0.00906233       0.45350700       0.35660062 </v>
    <v>       0.10204867       0.43538200       0.29176404 </v>
    <v>       0.23128467       0.33333333       0.29176404 </v>
    <v>       0.10204867       0.66666667       0.09725468 </v>
    <v>       0.22222233       0.67572900       0.03241810 </v>
    <v>       0.00000000       0.76871533       0.09725468 </v>
    <v>       0.23128467       0.89795133       0.09725468 </v>
    <v>       0.32427100       0.87982633       0.03241810 </v>
    <v>       0.12017367       0.77777767       0.03241810 </v>
    <v>       0.32427100       0.77777767       0.22692746 </v>
    <v>       0.11111100       0.78684033       0.16209126 </v>
    <v>       0.22222233       0.87982633       0.22692746 </v>
    <v>       0.12017367       0.67572900       0.22692746 </v>
    <v>       0.21315967       0.99093767       0.16209126 </v>
    <v>       0.00906233       0.88888900       0.16209126 </v>
    <v>       0.21315967       0.88888900       0.35660062 </v>
    <v>       0.00000000       0.89795133       0.29176404 </v>
    <v>       0.11111100       0.99093767       0.35660062 </v>
    <v>       0.00906233       0.78684033       0.35660062 </v>
    <v>       0.10204867       0.76871533       0.29176404 </v>
    <v>       0.23128467       0.66666667       0.29176404 </v>
    <v>       0.43538200       0.00000000       0.09725468 </v>
    <v>       0.55555567       0.00906233       0.03241810 </v>
    <v>       0.33333333       0.10204867       0.09725468 </v>
    <v>       0.56461800       0.23128467       0.09725468 </v>
    <v>       0.65760433       0.21315967       0.03241810 </v>
    <v>       0.45350700       0.11111100       0.03241810 </v>
    <v>       0.65760433       0.11111100       0.22692746 </v>
    <v>       0.44444433       0.12017367       0.16209126 </v>
    <v>       0.55555567       0.21315967       0.22692746 </v>
    <v>       0.45350700       0.00906233       0.22692746 </v>
    <v>       0.54649300       0.32427100       0.16209126 </v>
    <v>       0.34239567       0.22222233       0.16209126 </v>
    <v>       0.54649300       0.22222233       0.35660062 </v>
    <v>       0.33333333       0.23128467       0.29176404 </v>
    <v>       0.44444433       0.32427100       0.35660062 </v>
    <v>       0.34239567       0.12017367       0.35660062 </v>
    <v>       0.43538200       0.10204867       0.29176404 </v>
    <v>       0.56461800       0.00000000       0.29176404 </v>
    <v>       0.43538200       0.33333333       0.09725468 </v>
    <v>       0.55555567       0.34239567       0.03241810 </v>
    <v>       0.33333333       0.43538200       0.09725468 </v>
    <v>       0.56461800       0.56461800       0.09725468 </v>
    <v>       0.65760433       0.54649300       0.03241810 </v>
    <v>       0.45350700       0.44444433       0.03241810 </v>
    <v>       0.65760433       0.44444433       0.22692746 </v>
    <v>       0.44444433       0.45350700       0.16209126 </v>
    <v>       0.55555567       0.54649300       0.22692746 </v>
    <v>       0.45350700       0.34239567       0.22692746 </v>
    <v>       0.54649300       0.65760433       0.16209126 </v>
    <v>       0.34239567       0.55555567       0.16209126 </v>
    <v>       0.54649300       0.55555567       0.35660062 </v>
    <v>       0.33333333       0.56461800       0.29176404 </v>
    <v>       0.44444433       0.65760433       0.35660062 </v>
    <v>       0.34239567       0.45350700       0.35660062 </v>
    <v>       0.43538200       0.43538200       0.29176404 </v>
    <v>       0.56461800       0.33333333       0.29176404 </v>
    <v>       0.43538200       0.66666667       0.09725468 </v>
    <v>       0.55555567       0.67572900       0.03241810 </v>
    <v>       0.33333333       0.76871533       0.09725468 </v>
    <v>       0.56461800       0.89795133       0.09725468 </v>
    <v>       0.65760433       0.87982633       0.03241810 </v>
    <v>       0.45350700       0.77777767       0.03241810 </v>
    <v>       0.65760433       0.77777767       0.22692746 </v>
    <v>       0.44444433       0.78684033       0.16209126 </v>
    <v>       0.55555567       0.87982633       0.22692746 </v>
    <v>       0.45350700       0.67572900       0.22692746 </v>
    <v>       0.54649300       0.99093767       0.16209126 </v>
    <v>       0.34239567       0.88888900       0.16209126 </v>
    <v>       0.54649300       0.88888900       0.35660062 </v>
    <v>       0.33333333       0.89795133       0.29176404 </v>
    <v>       0.44444433       0.99093767       0.35660062 </v>
    <v>       0.34239567       0.78684033       0.35660062 </v>
    <v>       0.43538200       0.76871533       0.29176404 </v>
    <v>       0.56461800       0.66666667       0.29176404 </v>
    <v>       0.76871533       0.00000000       0.09725468 </v>
    <v>       0.88888900       0.00906233       0.03241810 </v>
    <v>       0.66666667       0.10204867       0.09725468 </v>
    <v>       0.89795133       0.23128467       0.09725468 </v>
    <v>       0.99093767       0.21315967       0.03241810 </v>
    <v>       0.78684033       0.11111100       0.03241810 </v>
    <v>       0.99093767       0.11111100       0.22692746 </v>
    <v>       0.77777767       0.12017367       0.16209126 </v>
    <v>       0.88888900       0.21315967       0.22692746 </v>
    <v>       0.78684033       0.00906233       0.22692746 </v>
    <v>       0.87982633       0.32427100       0.16209126 </v>
    <v>       0.67572900       0.22222233       0.16209126 </v>
    <v>       0.87982633       0.22222233       0.35660062 </v>
    <v>       0.66666667       0.23128467       0.29176404 </v>
    <v>       0.77777767       0.32427100       0.35660062 </v>
    <v>       0.67572900       0.12017367       0.35660062 </v>
    <v>       0.76871533       0.10204867       0.29176404 </v>
    <v>       0.89795133       0.00000000       0.29176404 </v>
    <v>       0.76871533       0.33333333       0.09725468 </v>
    <v>       0.88888900       0.34239567       0.03241810 </v>
    <v>       0.66666667       0.43538200       0.09725468 </v>
    <v>       0.89795133       0.56461800       0.09725468 </v>
    <v>       0.99093767       0.54649300       0.03241810 </v>
    <v>       0.78684033       0.44444433       0.03241810 </v>
    <v>       0.99093767       0.44444433       0.22692746 </v>
    <v>       0.77777767       0.45350700       0.16209126 </v>
    <v>       0.88888900       0.54649300       0.22692746 </v>
    <v>       0.78684033       0.34239567       0.22692746 </v>
    <v>       0.87982633       0.65760433       0.16209126 </v>
    <v>       0.67572900       0.55555567       0.16209126 </v>
    <v>       0.87982633       0.55555567       0.35660062 </v>
    <v>       0.66666667       0.56461800       0.29176404 </v>
    <v>       0.77777767       0.65760433       0.35660062 </v>
    <v>       0.67572900       0.45350700       0.35660062 </v>
    <v>       0.76871533       0.43538200       0.29176404 </v>
    <v>       0.89795133       0.33333333       0.29176404 </v>
    <v>       0.76871533       0.66666667       0.09725468 </v>
    <v>       0.88888900       0.67572900       0.03241810 </v>
    <v>       0.66666667       0.76871533       0.09725468 </v>
    <v>       0.89795133       0.89795133       0.09725468 </v>
    <v>       0.99093767       0.87982633       0.03241810 </v>
    <v>       0.78684033       0.77777767       0.03241810 </v>
    <v>       0.99093767       0.77777767       0.22692746 </v>
    <v>       0.77777767       0.78684033       0.16209126 </v>
    <v>       0.88888900       0.87982633       0.22692746 </v>
    <v>       0.78684033       0.67572900       0.22692746 </v>
    <v>       0.87982633       0.99093767       0.16209126 </v>
    <v>       0.67572900       0.88888900       0.16209126 </v>
    <v>       0.87982633       0.88888900       0.35660062 </v>
    <v>       0.66666667       0.89795133       0.29176404 </v>
    <v>       0.77777767       0.99093767       0.35660062 </v>
    <v>       0.67572900       0.78684033       0.35660062 </v>
    <v>       0.76871533       0.76871533       0.29176404 </v>
    <v>       0.89795133       0.66666667       0.29176404 </v>
    <v>       0.00000000       0.00000000       0.42324256 </v>
    <v>       0.00000000       0.00000000       0.45883370 </v>
    <v>       0.00000000       0.12500000       0.42324256 </v>
    <v>       0.00000000       0.12500000       0.45883370 </v>
    <v>       0.00000000       0.25000000       0.42324256 </v>
    <v>       0.00000000       0.25000000       0.45883370 </v>
    <v>       0.00000000       0.37500000       0.42324256 </v>
    <v>       0.00000000       0.37500000       0.45883370 </v>
    <v>       0.00000000       0.50000000       0.42324256 </v>
    <v>       0.00000000       0.50000000       0.45883370 </v>
    <v>       0.00000000       0.62500000       0.42324256 </v>
    <v>       0.00000000       0.62500000       0.45883370 </v>
    <v>       0.00000000       0.75000000       0.42324256 </v>
    <v>       0.00000000       0.75000000       0.45883370 </v>
    <v>       0.00000000       0.87500000       0.42324256 </v>
    <v>       0.00000000       0.87500000       0.45883370 </v>
    <v>       0.12500000       0.00000000       0.42324256 </v>
    <v>       0.12500000       0.00000000       0.45883370 </v>
    <v>       0.12500000       0.12500000       0.42324256 </v>
    <v>       0.12500000       0.12500000       0.45883370 </v>
    <v>       0.12500000       0.25000000       0.42324256 </v>
    <v>       0.12500000       0.25000000       0.45883370 </v>
    <v>       0.12500000       0.37500000       0.42324256 </v>
    <v>       0.12500000       0.37500000       0.45883370 </v>
    <v>       0.12500000       0.50000000       0.42324256 </v>
    <v>       0.12500000       0.50000000       0.45883370 </v>
    <v>       0.12500000       0.62500000       0.42324256 </v>
    <v>       0.12500000       0.62500000       0.45883370 </v>
    <v>       0.12500000       0.75000000       0.42324256 </v>
    <v>       0.12500000       0.75000000       0.45883370 </v>
    <v>       0.12500000       0.87500000       0.42324256 </v>
    <v>       0.12500000       0.87500000       0.45883370 </v>
    <v>       0.25000000       0.00000000       0.42324256 </v>
    <v>       0.25000000       0.00000000       0.45883370 </v>
    <v>       0.25000000       0.12500000       0.42324256 </v>
    <v>       0.25000000       0.12500000       0.45883370 </v>
    <v>       0.25000000       0.25000000       0.42324256 </v>
    <v>       0.25000000       0.25000000       0.45883370 </v>
    <v>       0.25000000       0.37500000       0.42324256 </v>
    <v>       0.25000000       0.37500000       0.45883370 </v>
    <v>       0.25000000       0.50000000       0.42324256 </v>
    <v>       0.25000000       0.50000000       0.45883370 </v>
    <v>       0.25000000       0.62500000       0.42324256 </v>
    <v>       0.25000000       0.62500000       0.45883370 </v>
    <v>       0.25000000       0.75000000       0.42324256 </v>
    <v>       0.25000000       0.75000000       0.45883370 </v>
    <v>       0.25000000       0.87500000       0.42324256 </v>
    <v>       0.25000000       0.87500000       0.45883370 </v>
    <v>       0.37500000       0.00000000       0.42324256 </v>
    <v>       0.37500000       0.00000000       0.45883370 </v>
    <v>       0.37500000       0.12500000       0.42324256 </v>
    <v>       0.37500000       0.12500000       0.45883370 </v>
    <v>       0.37500000       0.25000000       0.42324256 </v>
    <v>       0.37500000       0.25000000       0.45883370 </v>
    <v>       0.37500000       0.37500000       0.42324256 </v>
    <v>       0.37500000       0.37500000       0.45883370 </v>
    <v>       0.37500000       0.50000000       0.42324256 </v>
    <v>       0.37500000       0.50000000       0.45883370 </v>
    <v>       0.37500000       0.62500000       0.42324256 </v>
    <v>       0.37500000       0.62500000       0.45883370 </v>
    <v>       0.37500000       0.75000000       0.42324256 </v>
    <v>       0.37500000       0.75000000       0.45883370 </v>
    <v>       0.37500000       0.87500000       0.42324256 </v>
    <v>       0.37500000       0.87500000       0.45883370 </v>
    <v>       0.50000000       0.00000000       0.42324256 </v>
    <v>       0.50000000       0.00000000       0.45883370 </v>
    <v>       0.50000000       0.12500000       0.42324256 </v>
    <v>       0.50000000       0.12500000       0.45883370 </v>
    <v>       0.50000000       0.25000000       0.42324256 </v>
    <v>       0.50000000       0.25000000       0.45883370 </v>
    <v>       0.50000000       0.37500000       0.42324256 </v>
    <v>       0.50000000       0.37500000       0.45883370 </v>
    <v>       0.50000000       0.50000000       0.42324256 </v>
    <v>       0.50000000       0.50000000       0.45883370 </v>
    <v>       0.50000000       0.62500000       0.42324256 </v>
    <v>       0.50000000       0.62500000       0.45883370 </v>
    <v>       0.50000000       0.75000000       0.42324256 </v>
    <v>       0.50000000       0.75000000       0.45883370 </v>
    <v>       0.50000000       0.87500000       0.42324256 </v>
    <v>       0.50000000       0.87500000       0.45883370 </v>
    <v>       0.62500000       0.00000000       0.42324256 </v>
    <v>       0.62500000       0.00000000       0.45883370 </v>
    <v>       0.62500000       0.12500000       0.42324256 </v>
    <v>       0.62500000       0.12500000       0.45883370 </v>
    <v>       0.62500000       0.25000000       0.42324256 </v>
    <v>       0.62500000       0.25000000       0.45883370 </v>
    <v>       0.62500000       0.37500000       0.42324256 </v>
    <v>       0.62500000       0.37500000       0.45883370 </v>
    <v>       0.62500000       0.50000000       0.42324256 </v>
    <v>       0.62500000       0.50000000       0.45883370 </v>
    <v>       0.62500000       0.62500000       0.42324256 </v>
    <v>       0.62500000       0.62500000       0.45883370 </v>
    <v>       0.62500000       0.75000000       0.42324256 </v>
    <v>       0.62500000       0.75000000       0.45883370 </v>
    <v>       0.62500000       0.87500000       0.42324256 </v>
    <v>       0.62500000       0.87500000       0.45883370 </v>
    <v>       0.75000000       0.00000000       0.42324256 </v>
    <v>       0.75000000       0.00000000       0.45883370 </v>
    <v>       0.75000000       0.12500000       0.42324256 </v>
    <v>       0.75000000       0.12500000       0.45883370 </v>
    <v>       0.75000000       0.25000000       0.42324256 </v>
    <v>       0.75000000       0.25000000       0.45883370 </v>
    <v>       0.75000000       0.37500000       0.42324256 </v>
    <v>       0.75000000       0.37500000       0.45883370 </v>
    <v>       0.75000000       0.50000000       0.42324256 </v>
    <v>       0.75000000       0.50000000       0.45883370 </v>
    <v>       0.75000000       0.62500000       0.42324256 </v>
    <v>       0.75000000       0.62500000       0.45883370 </v>
    <v>       0.75000000       0.75000000       0.42324256 </v>
    <v>       0.75000000       0.75000000       0.45883370 </v>
    <v>       0.75000000       0.87500000       0.42324256 </v>
    <v>       0.75000000       0.87500000       0.45883370 </v>
    <v>       0.87500000       0.00000000       0.42324256 </v>
    <v>       0.87500000       0.00000000       0.45883370 </v>
    <v>       0.87500000       0.12500000       0.42324256 </v>
    <v>       0.87500000       0.12500000       0.45883370 </v>
    <v>       0.87500000       0.25000000       0.42324256 </v>
    <v>       0.87500000       0.25000000       0.45883370 </v>
    <v>       0.87500000       0.37500000       0.42324256 </v>
    <v>       0.87500000       0.37500000       0.45883370 </v>
    <v>       0.87500000       0.50000000       0.42324256 </v>
    <v>       0.87500000       0.50000000       0.45883370 </v>
    <v>       0.87500000       0.62500000       0.42324256 </v>
    <v>       0.87500000       0.62500000       0.45883370 </v>
    <v>       0.87500000       0.75000000       0.42324256 </v>
    <v>       0.87500000       0.75000000       0.45883370 </v>
    <v>       0.87500000       0.87500000       0.42324256 </v>
    <v>       0.87500000       0.87500000       0.45883370 </v>
   </varray>
  </structure>
  <varray name="primitive_index" >
   <v type="int" >        1 </v>
   <v type="int" >        2 </v>
   <v type="int" >        3 </v>
   <v type="int" >        4 </v>
   <v type="int" >        5 </v>
   <v type="int" >        6 </v>
   <v type="int" >        7 </v>
   <v type="int" >        8 </v>
   <v type="int" >        9 </v>
   <v type="int" >       10 </v>
   <v type="int" >       11 </v>
   <v type="int" >       12 </v>
   <v type="int" >       13 </v>
   <v type="int" >       14 </v>
   <v type="int" >       15 </v>
   <v type="int" >       16 </v>
   <v type="int" >       17 </v>
   <v type="int" >       18 </v>
   <v type="int" >       19 </v>
   <v type="int" >       20 </v>
   <v type="int" >       21 </v>
   <v type="int" >       22 </v>
   <v type="int" >       23 </v>
   <v type="int" >       24 </v>
   <v type="int" >       25 </v>
   <v type="int" >       26 </v>
   <v type="int" >       27 </v>
   <v type="int" >       28 </v>
   <v type="int" >       29 </v>
   <v type="int" >       30 </v>
   <v type="int" >       31 </v>
   <v type="int" >       32 </v>
   <v type="int" >       33 </v>
   <v type="int" >       34 </v>
   <v type="int" >       35 </v>
   <v type="int" >       36 </v>
   <v type="int" >       37 </v>
   <v type="int" >       38 </v>
   <v type="int" >       39 </v>
   <v type="int" >       40 </v>
   <v type="int" >       41 </v>
   <v type="int" >       42 </v>
   <v type="int" >       43 </v>
   <v type="int" >       44 </v>
   <v type="int" >       45 </v>
   <v type="int" >       46 </v>
   <v type="int" >       47 </v>
   <v type="int" >       48 </v>
   <v type="int" >       49 </v>
   <v type="int" >       50 </v>
   <v type="int" >       51 </v>
   <v type="int" >       52 </v>
   <v type="int" >       53 </v>
   <v type="int" >       54 </v>
   <v type="int" >       55 </v>
   <v type="int" >       56 </v>
   <v type="int" >       57 </v>
   <v type="int" >       58 </v>
   <v type="int" >       59 </v>
   <v type="int" >       60 </v>
   <v type="int" >       61 </v>
   <v type="int" >       62 </v>
   <v type="int" >       63 </v>
   <v type="int" >       64 </v>
   <v type="int" >       65 </v>
   <v type="int" >       66 </v>
   <v type="int" >       67 </v>
   <v type="int" >       68 </v>
   <v type="int" >       69 </v>
   <v type="int" >       70 </v>
   <v type="int" >       71 </v>
   <v type="int" >       72 </v>
   <v type="int" >       73 </v>
   <v type="int" >       74 </v>
   <v type="int" >       75 </v>
   <v type="int" >       76 </v>
   <v type="int" >       77 </v>
   <v type="int" >       78 </v>
   <v type="int" >       79 </v>
   <v type="int" >       80 </v>
   <v type="int" >       81 </v>
   <v type="int" >       82 </v>
   <v type="int" >       83 </v>
   <v type="int" >       84 </v>
   <v type="int" >       85 </v>
   <v type="int" >       86 </v>
   <v type="int" >       87 </v>
   <v type="int" >       88 </v>
   <v type="int" >       89 </v>
   <v type="int" >       90 </v>
   <v type="int" >       91 </v>
   <v type="int" >       92 </v>
   <v type="int" >       93 </v>
   <v type="int" >       94 </v>
   <v type="int" >       95 </v>
   <v type="int" >       96 </v>
   <v type="int" >       97 </v>
   <v type="int" >       98 </v>
   <v type="int" >       99 </v>
   <v type="int" >      100 </v>
   <v type="int" >      101 </v>
   <v type="int" >      102 </v>
   <v type="int" >      103 </v>
   <v type="int" >      104 </v>
   <v type="int" >      105 </v>
   <v type="int" >      106 </v>
   <v type="int" >      107 </v>
   <v type="int" >      108 </v>
   <v type="int" >      109 </v>
   <v type="int" >      110 </v>
   <v type="int" >      111 </v>
   <v type="int" >      112 </v>
   <v type="int" >      113 </v>
   <v type="int" >      114 </v>
   <v type="int" >      115 </v>
   <v type="int" >      116 </v>
   <v type="int" >      117 </v>
   <v type="int" >      118 </v>
   <v type="int" >      119 </v>
   <v type="int" >      120 </v>
   <v type="int" >      121 </v>
   <v type="int" >      122 </v>
   <v type="int" >      123 </v>
   <v type="int" >      124 </v>
   <v type="int" >      125 </v>
   <v type="int" >      126 </v>
   <v type="int" >      127 </v>
   <v type="int" >      128 </v>
   <v type="int" >      129 </v>
   <v type="int" >      130 </v>
   <v type="int" >      131 </v>
   <v type="int" >      132 </v>
   <v type="int" >      133 </v>
   <v type="int" >      134 </v>
   <v type="int" >      135 </v>
   <v type="int" >      136 </v>
   <v type="int" >      137 </v>
   <v type="int" >      138 </v>
   <v type="int" >      139 </v>
   <v type="int" >      140 </v>
   <v type="int" >      141 </v>
   <v type="int" >      142 </v>
   <v type="int" >      143 </v>
   <v type="int" >      144 </v>
   <v type="int" >      145 </v>
   <v type="int" >      146 </v>
   <v type="int" >      147 </v>
   <v type="int" >      148 </v>
   <v type="int" >      149 </v>
   <v type="int" >      150 </v>
   <v type="int" >      151 </v>
   <v type="int" >      152 </v>
   <v type="int" >      153 </v>
   <v type="int" >      154 </v>
   <v type="int" >      155 </v>
   <v type="int" >      156 </v>
   <v type="int" >      157 </v>
   <v type="int" >      158 </v>
   <v type="int" >      159 </v>
   <v type="int" >      160 </v>
   <v type="int" >      161 </v>
   <v type="int" >      162 </v>
   <v type="int" >      163 </v>
   <v type="int" >      164 </v>
   <v type="int" >      165 </v>
   <v type="int" >      166 </v>
   <v type="int" >      167 </v>
   <v type="int" >      168 </v>
   <v type="int" >      169 </v>
   <v type="int" >      170 </v>
   <v type="int" >      171 </v>
   <v type="int" >      172 </v>
   <v type="int" >      173 </v>
   <v type="int" >      174 </v>
   <v type="int" >      175 </v>
   <v type="int" >      176 </v>
   <v type="int" >      177 </v>
   <v type="int" >      178 </v>
   <v type="int" >      179 </v>
   <v type="int" >      180 </v>
   <v type="int" >      181 </v>
   <v type="int" >      182 </v>
   <v type="int" >      183 </v>
   <v type="int" >      184 </v>
   <v type="int" >      185 </v>
   <v type="int" >      186 </v>
   <v type="int" >      187 </v>
   <v type="int" >      188 </v>
   <v type="int" >      189 </v>
   <v type="int" >      190 </v>
   <v type="int" >      191 </v>
   <v type="int" >      192 </v>
   <v type="int" >      193 </v>
   <v type="int" >      194 </v>
   <v type="int" >      195 </v>
   <v type="int" >      196 </v>
   <v type="int" >      197 </v>
   <v type="int" >      198 </v>
   <v type="int" >      199 </v>
   <v type="int" >      200 </v>
   <v type="int" >      201 </v>
   <v type="int" >      202 </v>
   <v type="int" >      203 </v>
   <v type="int" >      204 </v>
   <v type="int" >      205 </v>
   <v type="int" >      206 </v>
   <v type="int" >      207 </v>
   <v type="int" >      208 </v>
   <v type="int" >      209 </v>
   <v type="int" >      210 </v>
   <v type="int" >      211 </v>
   <v type="int" >      212 </v>
   <v type="int" >      213 </v>
   <v type="int" >      214 </v>
   <v type="int" >      215 </v>
   <v type="int" >      216 </v>
   <v type="int" >      217 </v>
   <v type="int" >      218 </v>
   <v type="int" >      219 </v>
   <v type="int" >      220 </v>
   <v type="int" >      221 </v>
   <v type="int" >      222 </v>
   <v type="int" >      223 </v>
   <v type="int" >      224 </v>
   <v type="int" >      225 </v>
   <v type="int" >      226 </v>
   <v type="int" >      227 </v>
   <v type="int" >      228 </v>
   <v type="int" >      229 </v>
   <v type="int" >      230 </v>
   <v type="int" >      231 </v>
   <v type="int" >      232 </v>
   <v type="int" >      233 </v>
   <v type="int" >      234 </v>
   <v type="int" >      235 </v>
   <v type="int" >      236 </v>
   <v type="int" >      237 </v>
   <v type="int" >      238 </v>
   <v type="int" >      239 </v>
   <v type="int" >      240 </v>
   <v type="int" >      241 </v>
   <v type="int" >      242 </v>
   <v type="int" >      243 </v>
   <v type="int" >      244 </v>
   <v type="int" >      245 </v>
   <v type="int" >      246 </v>
   <v type="int" >      247 </v>
   <v type="int" >      248 </v>
   <v type="int" >      249 </v>
   <v type="int" >      250 </v>
   <v type="int" >      251 </v>
   <v type="int" >      252 </v>
   <v type="int" >      253 </v>
   <v type="int" >      254 </v>
   <v type="int" >      255 </v>
   <v type="int" >      256 </v>
   <v type="int" >      257 </v>
   <v type="int" >      258 </v>
   <v type="int" >      259 </v>
   <v type="int" >      260 </v>
   <v type="int" >      261 </v>
   <v type="int" >      262 </v>
   <v type="int" >      263 </v>
   <v type="int" >      264 </v>
   <v type="int" >      265 </v>
   <v type="int" >      266 </v>
   <v type="int" >      267 </v>
   <v type="int" >      268 </v>
   <v type="int" >      269 </v>
   <v type="int" >      270 </v>
   <v type="int" >      271 </v>
   <v type="int" >      272 </v>
   <v type="int" >      273 </v>
   <v type="int" >      274 </v>
   <v type="int" >      275 </v>
   <v type="int" >      276 </v>
   <v type="int" >      277 </v>
   <v type="int" >      278 </v>
   <v type="int" >      279 </v>
   <v type="int" >      280 </v>
   <v type="int" >      281 </v>
   <v type="int" >      282 </v>
   <v type="int" >      283 </v>
   <v type="int" >      284 </v>
   <v type="int" >      285 </v>
   <v type="int" >      286 </v>
   <v type="int" >      287 </v>
   <v type="int" >      288 </v>
   <v type="int" >      289 </v>
   <v type="int" >      290 </v>
   <v type="int" >      291 </v>
   <v type="int" >      292 </v>
   <v type="int" >      293 </v>
   <v type="int" >      294 </v>
   <v type="int" >      295 </v>
   <v type="int" >      296 </v>
   <v type="int" >      297 </v>
   <v type="int" >      298 </v>
   <v type="int" >      299 </v>
   <v type="int" >      300 </v>
   <v type="int" >      301 </v>
   <v type="int" >      302 </v>
   <v type="int" >      303 </v>
   <v type="int" >      304 </v>
   <v type="int" >      305 </v>
   <v type="int" >      306 </v>
   <v type="int" >      307 </v>
   <v type="int" >      308 </v>
   <v type="int" >      309 </v>
   <v type="int" >      310 </v>
   <v type="int" >      311 </v>
   <v type="int" >      312 </v>
   <v type="int" >      313 </v>
   <v type="int" >      314 </v>
   <v type="int" >      315 </v>
   <v type="int" >      316 </v>
   <v type="int" >      317 </v>
   <v type="int" >      318 </v>
   <v type="int" >      319 </v>
   <v type="int" >      320 </v>
   <v type="int" >      321 </v>
   <v type="int" >      322 </v>
   <v type="int" >      323 </v>
   <v type="int" >      324 </v>
   <v type="int" >      325 </v>
   <v type="int" >      326 </v>
   <v type="int" >      327 </v>
   <v type="int" >      328 </v>
   <v type="int" >      329 </v>
   <v type="int" >      330 </v>
   <v type="int" >      331 </v>
   <v type="int" >      332 </v>
   <v type="int" >      333 </v>
   <v type="int" >      334 </v>
   <v type="int" >      335 </v>
   <v type="int" >      336 </v>
   <v type="int" >      337 </v>
   <v type="int" >      338 </v>
   <v type="int" >      339 </v>
   <v type="int" >      340 </v>
   <v type="int" >      341 </v>
   <v type="int" >      342 </v>
   <v type="int" >      343 </v>
   <v type="int" >      344 </v>
   <v type="int" >      345 </v>
   <v type="int" >      346 </v>
   <v type="int" >      347 </v>
   <v type="int" >      348 </v>
   <v type="int" >      349 </v>
   <v type="int" >      350 </v>
   <v type="int" >      351 </v>
   <v type="int" >      352 </v>
   <v type="int" >      353 </v>
   <v type="int" >      354 </v>
   <v type="int" >      355 </v>
   <v type="int" >      356 </v>
   <v type="int" >      357 </v>
   <v type="int" >      358 </v>
   <v type="int" >      359 </v>
   <v type="int" >      360 </v>
   <v type="int" >      361 </v>
   <v type="int" >      362 </v>
   <v type="int" >      363 </v>
   <v type="int" >      364 </v>
   <v type="int" >      365 </v>
   <v type="int" >      366 </v>
   <v type="int" >      367 </v>
   <v type="int" >      368 </v>
   <v type="int" >      369 </v>
   <v type="int" >      370 </v>
   <v type="int" >      371 </v>
   <v type="int" >      372 </v>
   <v type="int" >      373 </v>
   <v type="int" >      374 </v>
   <v type="int" >      375 </v>
   <v type="int" >      376 </v>
   <v type="int" >      377 </v>
   <v type="int" >      378 </v>
   <v type="int" >      379 </v>
   <v type="int" >      380 </v>
   <v type="int" >      381 </v>
   <v type="int" >      382 </v>
   <v type="int" >      383 </v>
   <v type="int" >      384 </v>
   <v type="int" >      385 </v>
   <v type="int" >      386 </v>
   <v type="int" >      387 </v>
   <v type="int" >      388 </v>
   <v type="int" >      389 </v>
   <v type="int" >      390 </v>
   <v type="int" >      391 </v>
   <v type="int" >      392 </v>
   <v type="int" >      393 </v>
   <v type="int" >      394 </v>
   <v type="int" >      395 </v>
   <v type="int" >      396 </v>
   <v type="int" >      397 </v>
   <v type="int" >      398 </v>
  </varray>
 </primitive_cell>
 <kpoints>
  <generation param="Gamma">
   <v type="int" name="divisions">       2        2        1 </v>
   <v name="usershift">      0.00000000       0.00000000       0.00000000 </v>
   <v name="genvec1">      0.50000000       0.00000000       0.00000000 </v>
   <v name="genvec2">      0.00000000       0.50000000       0.00000000 </v>
   <v name="genvec3">      0.00000000       0.00000000       1.00000000 </v>
   <v name="shift">      0.00000000       0.00000000       0.00000000 </v>
  </generation>
  <varray name="kpointlist" >
   <v>       0.00000000       0.00000000       0.00000000 </v>
   <v>       0.50000000       0.00000000       0.00000000 </v>
  </varray>
  <varray name="weights" >
   <v>       0.25000000 </v>
   <v>       0.75000000 </v>
  </varray>
 </kpoints>
 <parameters>
  <separator name="general" >
   <i type="string" name="SYSTEM">NiAl</i>
   <i type="logical" name="LCOMPAT"> F  </i>
  </separator>
  <separator name="electronic" >
   <i type="string" name="PREC">normal</i>
   <i name="ENMAX">    360.00000000</i>
   <i name="ENAUG">   1139.60900000</i>
   <i name="EDIFF">      0.00000500</i>
   <i type="int" name="IALGO">    38</i>
   <i type="int" name="IWAVPR">    11</i>
   <i type="int" name="NBANDS">  1238</i>
   <i type="int" name="NBANDSLOW">    -1</i>
   <i type="int" name="NBANDSHIGH">    -1</i>
   <i name="NELECT">   2064.00000000</i>
   <i type="int" name="TURBO">     0</i>
   <i type="int" name="IRESTART">     0</i>
   <i type="int" name="NREBOOT">     0</i>
   <i type="int" name="NMIN">     0</i>
   <i name="EREF">      0.00000000</i>
   <separator name="electronic smearing" >
    <i type="int" name="ISMEAR">     0</i>
    <i name="SIGMA">      0.05000000</i>
    <i name="KSPACING">      0.50000000</i>
    <i type="logical" name="KGAMMA"> T  </i>
    <i type="logical" name="KBLOWUP"> T  </i>
   </separator>
   <separator name="electronic projectors" >
    <i type="logical" name="LREAL"> T  </i>
    <v name="ROPT">     -0.00050000     -0.00050000</v>
    <i type="int" name="LMAXPAW">  -100</i>
    <i type="int" name="LMAXMIX">     2</i>
    <i type="logical" name="NLSPLINE"> F  </i>
   </separator>
   <separator name="electronic startup" >
    <i type="int" name="ISTART">     0</i>
    <i type="int" name="ICHARG">     2</i>
    <i type="int" name="INIWAV">     1</i>
   </separator>
   <separator name="electronic spin" >
    <i type="int" name="ISPIN">     1</i>
    <i type="logical" name="LNONCOLLINEAR"> F  </i>
    <v name="MAGMOM">      1.00000000      1.00000000      1.00000000      1.00000000      1.00000000      1.00000000      1.00000000      1.00000000      1.00000000      1.00000000      1.00000000      1.00000000      1.00000000      1.00000000      1.00000000      1.00000000      1.00000000      1.00000000      1.00000000      1.00000000
      1.00000000      1.00000000      1.00000000      1.00000000      1.00000000      1.00000000      1.00000000      1.00000000      1.00000000      1.00000000      1.00000000      1.00000000      1.00000000      1.00000000      1.00000000      1.00000000      1.00000000      1.00000000      1.00000000      1.00000000
      1.00000000      1.00000000      1.00000000      1.00000000      1.00000000      1.00000000      1.00000000      1.00000000      1.00000000      1.00000000      1.00000000      1.00000000      1.00000000      1.00000000      1.00000000      1.00000000      1.00000000      1.00000000      1.00000000      1.00000000
      1.00000000      1.00000000      1.00000000      1.00000000      1.00000000      1.00000000      1.00000000      1.00000000      1.00000000      1.00000000      1.00000000      1.00000000      1.00000000      1.00000000      1.00000000      1.00000000      1.00000000      1.00000000      1.00000000      1.00000000
      1.00000000      1.00000000      1.00000000      1.00000000      1.00000000      1.00000000      1.00000000      1.00000000      1.00000000      1.00000000      1.00000000      1.00000000      1.00000000      1.00000000      1.00000000      1.00000000      1.00000000      1.00000000      1.00000000      1.00000000
      1.00000000      1.00000000      1.00000000      1.00000000      1.00000000      1.00000000      1.00000000      1.00000000      1.00000000      1.00000000      1.00000000      1.00000000      1.00000000      1.00000000      1.00000000      1.00000000      1.00000000      1.00000000      1.00000000      1.00000000
      1.00000000      1.00000000      1.00000000      1.00000000      1.00000000      1.00000000      1.00000000      1.00000000      1.00000000      1.00000000      1.00000000      1.00000000      1.00000000      1.00000000      1.00000000      1.00000000      1.00000000      1.00000000      1.00000000      1.00000000
      1.00000000      1.00000000      1.00000000      1.00000000      1.00000000      1.00000000      1.00000000      1.00000000      1.00000000      1.00000000      1.00000000      1.00000000      1.00000000      1.00000000      1.00000000      1.00000000      1.00000000      1.00000000      1.00000000      1.00000000
      1.00000000      1.00000000      1.00000000      1.00000000      1.00000000      1.00000000      1.00000000      1.00000000      1.00000000      1.00000000      1.00000000      1.00000000      1.00000000      1.00000000      1.00000000      1.00000000      1.00000000      1.00000000      1.00000000      1.00000000
      1.00000000      1.00000000      1.00000000      1.00000000      1.00000000      1.00000000      1.00000000      1.00000000      1.00000000      1.00000000      1.00000000      1.00000000      1.00000000      1.00000000      1.00000000      1.00000000      1.00000000      1.00000000      1.00000000      1.00000000
      1.00000000      1.00000000      1.00000000      1.00000000      1.00000000      1.00000000      1.00000000      1.00000000      1.00000000      1.00000000      1.00000000      1.00000000      1.00000000      1.00000000      1.00000000      1.00000000      1.00000000      1.00000000      1.00000000      1.00000000
      1.00000000      1.00000000      1.00000000      1.00000000      1.00000000      1.00000000      1.00000000      1.00000000      1.00000000      1.00000000      1.00000000      1.00000000      1.00000000      1.00000000      1.00000000      1.00000000      1.00000000      1.00000000      1.00000000      1.00000000
      1.00000000      1.00000000      1.00000000      1.00000000      1.00000000      1.00000000      1.00000000      1.00000000      1.00000000      1.00000000      1.00000000      1.00000000      1.00000000      1.00000000      1.00000000      1.00000000      1.00000000      1.00000000      1.00000000      1.00000000
      1.00000000      1.00000000      1.00000000      1.00000000      1.00000000      1.00000000      1.00000000      1.00000000      1.00000000      1.00000000      1.00000000      1.00000000      1.00000000      1.00000000      1.00000000      1.00000000      1.00000000      1.00000000      1.00000000      1.00000000
      1.00000000      1.00000000      1.00000000      1.00000000      1.00000000      1.00000000      1.00000000      1.00000000      1.00000000      1.00000000      1.00000000      1.00000000      1.00000000      1.00000000      1.00000000      1.00000000      1.00000000      1.00000000      1.00000000      1.00000000
      1.00000000      1.00000000      1.00000000      1.00000000      1.00000000      1.00000000      1.00000000      1.00000000      1.00000000      1.00000000      1.00000000      1.00000000      1.00000000      1.00000000      1.00000000      1.00000000      1.00000000      1.00000000      1.00000000      1.00000000
      1.00000000      1.00000000      1.00000000      1.00000000      1.00000000      1.00000000      1.00000000      1.00000000      1.00000000      1.00000000      1.00000000      1.00000000      1.00000000      1.00000000      1.00000000      1.00000000      1.00000000      1.00000000      1.00000000      1.00000000
      1.00000000      1.00000000      1.00000000      1.00000000      1.00000000      1.00000000      1.00000000      1.00000000      1.00000000      1.00000000      1.00000000      1.00000000      1.00000000      1.00000000      1.00000000      1.00000000      1.00000000      1.00000000      1.00000000      1.00000000
      1.00000000      1.00000000      1.00000000      1.00000000      1.00000000      1.00000000      1.00000000      1.00000000      1.00000000      1.00000000      1.00000000      1.00000000      1.00000000      1.00000000      1.00000000      1.00000000      1.00000000      1.00000000      1.00000000      1.00000000
      1.00000000      1.00000000      1.00000000      1.00000000      1.00000000      1.00000000      1.00000000      1.00000000      1.00000000      1.00000000      1.00000000      1.00000000      1.00000000      1.00000000      1.00000000      1.00000000      1.00000000      1.00000000</v>
    <i name="NUPDOWN">     -1.00000000</i>
    <i type="logical" name="LSORBIT"> F  </i>
    <v name="SAXIS">      0.00000000      0.00000000      1.00000000</v>
    <i type="logical" name="LSPIRAL"> F  </i>
    <v name="QSPIRAL">      0.00000000      0.00000000      0.00000000</v>
    <i type="logical" name="LZEROZ"> F  </i>
   </separator>
   <separator name="electronic exchange-correlation" >
    <i type="logical" name="LASPH"> F  </i>
    <i type="logical" name="LMETAGGA"> F  </i>
   </separator>
   <separator name="electronic convergence" >
    <i type="int" name="NELM">    60</i>
    <i type="int" name="NELMDL">    -5</i>
    <i type="int" name="NELMIN">     6</i>
    <i name="ENINI">    360.00000000</i>
    <separator name="electronic convergence detail" >
     <i type="logical" name="LDIAG"> T  </i>
     <i type="logical" name="LSUBROT"> F  </i>
     <i name="WEIMIN">      0.00100000</i>
     <i name="EBREAK">      0.00000000</i>
     <i name="DEPER">      0.30000000</i>
     <i type="int" name="NRMM">     4</i>
     <i name="TIME">      0.40000000</i>
    </separator>
   </separator>
   <separator name="electronic mixer" >
    <i name="AMIX">      0.40000000</i>
    <i name="BMIX">      1.00000000</i>
    <i name="AMIN">      0.10000000</i>
    <i name="AMIX_MAG">      1.60000000</i>
    <i name="BMIX_MAG">      1.00000000</i>
    <separator name="electronic mixer details" >
     <i type="int" name="IMIX">     4</i>
     <i type="logical" name="MIXFIRST"> F  </i>
     <i type="int" name="MAXMIX">   -45</i>
     <i name="WC">    100.00000000</i>
     <i type="int" name="INIMIX">     1</i>
     <i type="int" name="MIXPRE">     1</i>
     <i type="int" name="MREMOVE">     5</i>
    </separator>
   </separator>
   <separator name="electronic dipolcorrection" >
    <i type="logical" name="LDIPOL"> F  </i>
    <i type="logical" name="LMONO"> F  </i>
    <i type="int" name="IDIPOL">     0</i>
    <i name="EPSILON">      1.00000000</i>
    <v name="DIPOL">   -100.00000000   -100.00000000   -100.00000000</v>
    <i name="EFIELD">      0.00000000</i>
   </separator>
  </separator>
  <separator name="grids" >
   <i type="int" name="NGX">    70</i>
   <i type="int" name="NGY">    70</i>
   <i type="int" name="NGZ">   160</i>
   <i type="int" name="NGXF">   140</i>
   <i type="int" name="NGYF">   140</i>
   <i type="int" name="NGZF">   320</i>
   <i type="logical" name="ADDGRID"> F  </i>
  </separator>
  <separator name="ionic" >
   <i type="int" name="NSW">    40</i>
   <i type="int" name="IBRION">     2</i>
   <i type="int" name="MDALGO">     0</i>
   <i type="int" name="ISIF">     0</i>
   <i name="PSTRESS">      0.00000000</i>
   <i name="EDIFFG">      0.00005000</i>
   <i type="int" name="NFREE">     1</i>
   <i name="POTIM">      0.20000000</i>
   <i name="SMASS">     -3.00000000</i>
   <i name="SCALEE">      1.00000000</i>
  </separator>
  <separator name="ionic md" >
   <i name="TEBEG">      0.00010000</i>
   <i name="TEEND">      0.00010000</i>
   <i type="int" name="NBLOCK">     1</i>
   <i type="int" name="KBLOCK">    40</i>
   <i type="int" name="NPACO">   256</i>
   <i name="APACO">     16.00000000</i>
  </separator>
  <separator name="symmetry" >
   <i type="int" name="ISYM">     2</i>
   <i name="SYMPREC">      0.00001000</i>
  </separator>
  <separator name="dos" >
   <i type="int" name="LORBIT">     0</i>
   <v name="RWIGS">     -1.00000000     -1.00000000</v>
   <i type="int" name="NEDOS">   301</i>
   <i name="EMIN">     10.00000000</i>
   <i name="EMAX">    -10.00000000</i>
   <i name="EFERMI">      0.00000000</i>
  </separator>
  <separator name="writing" >
   <i type="int" name="NWRITE">     2</i>
   <i type="logical" name="LWAVE"> F  </i>
   <i type="logical" name="LDOWNSAMPLE"> F  </i>
   <i type="logical" name="LCHARG"> F  </i>
   <i type="logical" name="LPARD"> F  </i>
   <i type="logical" name="LVTOT"> F  </i>
   <i type="logical" name="LVHAR"> F  </i>
   <i type="logical" name="LELF"> F  </i>
   <i type="logical" name="LOPTICS"> F  </i>
   <v name="STM">      0.00000000      0.00000000      0.00000000      0.00000000      0.00000000      0.00000000      0.00000000</v>
  </separator>
  <separator name="performance" >
   <i type="int" name="NPAR">     1</i>
   <i type="int" name="NSIM">     4</i>
   <i type="int" name="NBLK">    -1</i>
   <i type="logical" name="LPLANE"> T  </i>
   <i type="logical" name="LSCALAPACK"> T  </i>
   <i type="logical" name="LSCAAWARE"> F  </i>
   <i type="logical" name="LSCALU"> F  </i>
   <i type="logical" name="LASYNC"> F  </i>
   <i type="logical" name="LORBITALREAL"> F  </i>
  </separator>
  <separator name="miscellaneous" >
   <i type="int" name="IDIOT">     3</i>
   <i type="int" name="PHON_NSTRUCT">    -1</i>
   <i type="logical" name="LMUSIC"> F  </i>
   <v name="POMASS">     26.98200000     16.00000000</v>
   <v name="DARWINR">      0.00000000      0.00000000</v>
   <v name="DARWINV">      1.00000000      1.00000000</v>
   <i type="logical" name="LCORR"> T  </i>
  </separator>
  <i type="logical" name="GGA_COMPAT"> T  </i>
  <i type="logical" name="LBERRY"> F  </i>
  <i type="int" name="ICORELEVEL">     0</i>
  <i type="logical" name="LDAU"> F  </i>
  <i type="int" name="I_CONSTRAINED_M">     0</i>
  <separator name="electronic exchange-correlation" >
   <i type="string" name="GGA">--</i>
   <i type="int" name="VOSKOWN">     0</i>
   <i type="logical" name="LHFCALC"> F  </i>
   <i type="string" name="PRECFOCK"></i>
   <i type="logical" name="LSYMGRAD"> F  </i>
   <i type="logical" name="LHFONE"> F  </i>
   <i type="logical" name="LRHFCALC"> F  </i>
   <i type="logical" name="LTHOMAS"> F  </i>
   <i type="logical" name="LMODELHF"> F  </i>
   <i type="logical" name="LFOCKACE"> F  </i>
   <i name="ENCUT4O">     -1.00000000</i>
   <i type="int" name="EXXOEP">     0</i>
   <i type="int" name="FOURORBIT">     0</i>
   <i name="AEXX">      0.00000000</i>
   <i name="HFALPHA">      0.00000000</i>
   <i name="MCALPHA">      0.00000000</i>
   <i name="ALDAX">      1.00000000</i>
   <i name="AGGAX">      1.00000000</i>
   <i name="ALDAC">      1.00000000</i>
   <i name="AGGAC">      1.00000000</i>
   <i type="int" name="NKREDX">     1</i>
   <i type="int" name="NKREDY">     1</i>
   <i type="int" name="NKREDZ">     1</i>
   <i type="logical" name="SHIFTRED"> F  </i>
   <i type="logical" name="ODDONLY"> F  </i>
   <i type="logical" name="EVENONLY"> F  </i>
   <i type="int" name="LMAXFOCK">     0</i>
   <i type="int" name="NMAXFOCKAE">     0</i>
   <i type="logical" name="LFOCKAEDFT"> F  </i>
   <i name="HFSCREEN">      0.00000000</i>
   <i name="HFSCREENC">      0.00000000</i>
   <i type="int" name="NBANDSGWLOW">     0</i>
  </separator>
  <separator name="vdW DFT" >
   <i type="logical" name="LUSE_VDW"> F  </i>
   <i name="Zab_VDW">     -0.84910000</i>
   <i name="PARAM1">      0.12340000</i>
   <i name="PARAM2">      1.00000000</i>
   <i name="PARAM3">      0.00000000</i>
  </separator>
  <separator name="model GW" >
   <i type="int" name="MODEL_GW">     0</i>
   <i name="MODEL_EPS0">      9.14686879</i>
   <i name="MODEL_ALPHA">      1.00000000</i>
  </separator>
  <separator name="linear response parameters" >
   <i type="logical" name="LEPSILON"> F  </i>
   <i type="logical" name="LRPA"> F  </i>
   <i type="logical" name="LNABLA"> F  </i>
   <i type="logical" name="LVEL"> F  </i>
   <i type="int" name="KINTER">     0</i>
   <i name="CSHIFT">      0.10000000</i>
   <i name="OMEGAMAX">     -1.00000000</i>
   <i name="DEG_THRESHOLD">      0.00200000</i>
   <i name="RTIME">     -0.10000000</i>
   <i name="WPLASMAI">      0.00000000</i>
   <v name="DFIELD">      0.00000000      0.00000000      0.00000000</v>
   <v name="WPLASMA">      0.00000000      0.00000000      0.00000000      0.00000000      0.00000000      0.00000000      0.00000000      0.00000000      0.00000000</v>
  </separator>
  <separator name="orbital magnetization" >
   <i type="logical" name="NUCIND"> F  </i>
   <v name="MAGPOS">      0.00000000      0.00000000      0.00000000</v>
   <i type="logical" name="LNICSALL"> T  </i>
   <i type="logical" name="ORBITALMAG"> F  </i>
   <i type="logical" name="LMAGBLOCH"> F  </i>
   <i type="logical" name="LCHIMAG"> F  </i>
   <i type="logical" name="LGAUGE"> T  </i>
   <i type="int" name="MAGATOM">     0</i>
   <v name="MAGDIPOL">      0.00000000      0.00000000      0.00000000</v>
   <v name="AVECCONST">      0.00000000      0.00000000      0.00000000</v>
  </separator>
  <separator name="response functions" >
   <i type="logical" name="LFINITE_TEMPERATURE"> F  </i>
   <i type="logical" name="LADDER"> F  </i>
   <i type="logical" name="LRPAFORCE"> F  </i>
   <i type="logical" name="LFXC"> F  </i>
   <i type="logical" name="LHARTREE"> T  </i>
   <i type="int" name="IBSE">     0</i>
   <v type="int" name="KPOINT">    -1     0     0     0</v>
   <i type="logical" name="LTCTC"> F  </i>
   <i type="logical" name="LTCTE"> F  </i>
   <i type="logical" name="LTETE"> F  </i>
   <i type="logical" name="LTRIPLET"> F  </i>
   <i type="logical" name="LFXCEPS"> F  </i>
   <i type="logical" name="LFXHEG"> F  </i>
   <i type="int" name="NATURALO">     2</i>
   <i type="logical" name="LHOLEGF"> F  </i>
   <i type="logical" name="L2ORDER"> F  </i>
   <i type="logical" name="LDMP1"> F  </i>
   <i type="logical" name="LMP2LT"> F  </i>
   <i type="logical" name="LSMP2LT"> F  </i>
   <i type="logical" name="LGWLF"> F  </i>
   <i name="ENCUTGW">     -2.00000000</i>
   <i name="ENCUTGWSOFT">     -2.00000000</i>
   <i name="ENCUTLF">     -1.00000000</i>
   <i type="logical" name="LESF_SPLINES"> F  </i>
   <i type="int" name="LMAXMP2">    -1</i>
   <i name="SCISSOR">      0.00000000</i>
   <i type="int" name="NOMEGA">     0</i>
   <i type="int" name="NOMEGAR">     0</i>
   <i type="int" name="NBANDSGW">    -1</i>
   <i type="int" name="NBANDSO">    -1</i>
   <i type="int" name="NBANDSV">    -1</i>
   <i type="int" name="NELM">     1</i>
   <i type="int" name="NELMHF">     1</i>
   <i type="int" name="DIM">     3</i>
   <i type="int" name="IESPILON">     4</i>
   <i type="int" name="ANTIRES">     0</i>
   <i name="OMEGAMAX">    -30.00000000</i>
   <i name="OMEGAMIN">    -30.00000000</i>
   <i name="OMEGATL">   -200.00000000</i>
   <i type="int" name="OMEGAGRID">     0</i>
   <i name="CSHIFT">     -0.10000000</i>
   <i type="logical" name="LSELFENERGY"> F  </i>
   <i type="logical" name="LSPECTRAL"> F  </i>
   <i type="logical" name="LSPECTRALGW"> F  </i>
   <i type="logical" name="LSINGLES"> F  </i>
   <i type="logical" name="LFERMIGW"> F  </i>
   <i type="logical" name="ODDONLYGW"> F  </i>
   <i type="logical" name="EVENONLYGW"> F  </i>
   <i type="int" name="NKREDLFX">     1</i>
   <i type="int" name="NKREDLFY">     1</i>
   <i type="int" name="NKREDLFZ">     1</i>
   <i type="int" name="MAXMEM">  2800</i>
   <i type="int" name="TELESCOPE">     0</i>
   <i type="int" name="NTAUPAR">    -1</i>
   <i type="int" name="NOMEGAPAR">    -1</i>
   <i name="DAMP_NEWTON">      0.80000001</i>
   <i name="LAMBDA">      1.00000000</i>
  </separator>
  <separator name="External order field" >
   <i name="OFIELD_KAPPA">      0.00000000</i>
   <v name="OFIELD_K">      0.00000000      0.00000000      0.00000000</v>
   <i name="OFIELD_Q6_NEAR">      0.00000000</i>
   <i name="OFIELD_Q6_FAR">      0.00000000</i>
   <i name="OFIELD_A">      0.00000000</i>
  </separator>
 </parameters>
 <atominfo>
  <atoms>     398 </atoms>
  <types>       2 </types>
  <array name="atoms" >
   <dimension dim="1">ion</dimension>
   <field type="string">element</field>
   <field type="int">atomtype</field>
   <set>
    <rc><c>Al</c><c>   1</c></rc>
    <rc><c>Al</c><c>   1</c></rc>
    <rc><c>Al</c><c>   1</c></rc>
    <rc><c>Al</c><c>   1</c></rc>
    <rc><c>Al</c><c>   1</c></rc>
    <rc><c>Al</c><c>   1</c></rc>
    <rc><c>Al</c><c>   1</c></rc>
    <rc><c>Al</c><c>   1</c></rc>
    <rc><c>Al</c><c>   1</c></rc>
    <rc><c>Al</c><c>   1</c></rc>
    <rc><c>Al</c><c>   1</c></rc>
    <rc><c>Al</c><c>   1</c></rc>
    <rc><c>Al</c><c>   1</c></rc>
    <rc><c>Al</c><c>   1</c></rc>
    <rc><c>Al</c><c>   1</c></rc>
    <rc><c>Al</c><c>   1</c></rc>
    <rc><c>Al</c><c>   1</c></rc>
    <rc><c>Al</c><c>   1</c></rc>
    <rc><c>Al</c><c>   1</c></rc>
    <rc><c>Al</c><c>   1</c></rc>
    <rc><c>Al</c><c>   1</c></rc>
    <rc><c>Al</c><c>   1</c></rc>
    <rc><c>Al</c><c>   1</c></rc>
    <rc><c>Al</c><c>   1</c></rc>
    <rc><c>Al</c><c>   1</c></rc>
    <rc><c>Al</c><c>   1</c></rc>
    <rc><c>Al</c><c>   1</c></rc>
    <rc><c>Al</c><c>   1</c></rc>
    <rc><c>Al</c><c>   1</c></rc>
    <rc><c>Al</c><c>   1</c></rc>
    <rc><c>Al</c><c>   1</c></rc>
    <rc><c>Al</c><c>   1</c></rc>
    <rc><c>Al</c><c>   1</c></rc>
    <rc><c>Al</c><c>   1</c></rc>
    <rc><c>Al</c><c>   1</c></rc>
    <rc><c>Al</c><c>   1</c></rc>
    <rc><c>Al</c><c>   1</c></rc>
    <rc><c>Al</c><c>   1</c></rc>
    <rc><c>Al</c><c>   1</c></rc>
    <rc><c>Al</c><c>   1</c></rc>
    <rc><c>Al</c><c>   1</c></rc>
    <rc><c>Al</c><c>   1</c></rc>
    <rc><c>Al</c><c>   1</c></rc>
    <rc><c>Al</c><c>   1</c></rc>
    <rc><c>Al</c><c>   1</c></rc>
    <rc><c>Al</c><c>   1</c></rc>
    <rc><c>Al</c><c>   1</c></rc>
    <rc><c>Al</c><c>   1</c></rc>
    <rc><c>Al</c><c>   1</c></rc>
    <rc><c>Al</c><c>   1</c></rc>
    <rc><c>Al</c><c>   1</c></rc>
    <rc><c>Al</c><c>   1</c></rc>
    <rc><c>Al</c><c>   1</c></rc>
    <rc><c>Al</c><c>   1</c></rc>
    <rc><c>Al</c><c>   1</c></rc>
    <rc><c>Al</c><c>   1</c></rc>
    <rc><c>Al</c><c>   1</c></rc>
    <rc><c>Al</c><c>   1</c></rc>
    <rc><c>Al</c><c>   1</c></rc>
    <rc><c>Al</c><c>   1</c></rc>
    <rc><c>Al</c><c>   1</c></rc>
    <rc><c>Al</c><c>   1</c></rc>
    <rc><c>Al</c><c>   1</c></rc>
    <rc><c>Al</c><c>   1</c></rc>
    <rc><c>Al</c><c>   1</c></rc>
    <rc><c>Al</c><c>   1</c></rc>
    <rc><c>Al</c><c>   1</c></rc>
    <rc><c>Al</c><c>   1</c></rc>
    <rc><c>Al</c><c>   1</c></rc>
    <rc><c>Al</c><c>   1</c></rc>
    <rc><c>Al</c><c>   1</c></rc>
    <rc><c>Al</c><c>   1</c></rc>
    <rc><c>Al</c><c>   1</c></rc>
    <rc><c>Al</c><c>   1</c></rc>
    <rc><c>Al</c><c>   1</c></rc>
    <rc><c>Al</c><c>   1</c></rc>
    <rc><c>Al</c><c>   1</c></rc>
    <rc><c>Al</c><c>   1</c></rc>
    <rc><c>Al</c><c>   1</c></rc>
    <rc><c>Al</c><c>   1</c></rc>
    <rc><c>Al</c><c>   1</c></rc>
    <rc><c>Al</c><c>   1</c></rc>
    <rc><c>Al</c><c>   1</c></rc>
    <rc><c>Al</c><c>   1</c></rc>
    <rc><c>Al</c><c>   1</c></rc>
    <rc><c>Al</c><c>   1</c></rc>
    <rc><c>Al</c><c>   1</c></rc>
    <rc><c>Al</c><c>   1</c></rc>
    <rc><c>Al</c><c>   1</c></rc>
    <rc><c>Al</c><c>   1</c></rc>
    <rc><c>Al</c><c>   1</c></rc>
    <rc><c>Al</c><c>   1</c></rc>
    <rc><c>Al</c><c>   1</c></rc>
    <rc><c>Al</c><c>   1</c></rc>
    <rc><c>Al</c><c>   1</c></rc>
    <rc><c>Al</c><c>   1</c></rc>
    <rc><c>Al</c><c>   1</c></rc>
    <rc><c>Al</c><c>   1</c></rc>
    <rc><c>Al</c><c>   1</c></rc>
    <rc><c>Al</c><c>   1</c></rc>
    <rc><c>Al</c><c>   1</c></rc>
    <rc><c>Al</c><c>   1</c></rc>
    <rc><c>Al</c><c>   1</c></rc>
    <rc><c>Al</c><c>   1</c></rc>
    <rc><c>Al</c><c>   1</c></rc>
    <rc><c>Al</c><c>   1</c></rc>
    <rc><c>Al</c><c>   1</c></rc>
    <rc><c>Al</c><c>   1</c></rc>
    <rc><c>O </c><c>   2</c></rc>
    <rc><c>O </c><c>   2</c></rc>
    <rc><c>O </c><c>   2</c></rc>
    <rc><c>O </c><c>   2</c></rc>
    <rc><c>O </c><c>   2</c></rc>
    <rc><c>O </c><c>   2</c></rc>
    <rc><c>O </c><c>   2</c></rc>
    <rc><c>O </c><c>   2</c></rc>
    <rc><c>O </c><c>   2</c></rc>
    <rc><c>O </c><c>   2</c></rc>
    <rc><c>O </c><c>   2</c></rc>
    <rc><c>O </c><c>   2</c></rc>
    <rc><c>O </c><c>   2</c></rc>
    <rc><c>O </c><c>   2</c></rc>
    <rc><c>O </c><c>   2</c></rc>
    <rc><c>O </c><c>   2</c></rc>
    <rc><c>O </c><c>   2</c></rc>
    <rc><c>O </c><c>   2</c></rc>
    <rc><c>O </c><c>   2</c></rc>
    <rc><c>O </c><c>   2</c></rc>
    <rc><c>O </c><c>   2</c></rc>
    <rc><c>O </c><c>   2</c></rc>
    <rc><c>O </c><c>   2</c></rc>
    <rc><c>O </c><c>   2</c></rc>
    <rc><c>O </c><c>   2</c></rc>
    <rc><c>O </c><c>   2</c></rc>
    <rc><c>O </c><c>   2</c></rc>
    <rc><c>O </c><c>   2</c></rc>
    <rc><c>O </c><c>   2</c></rc>
    <rc><c>O </c><c>   2</c></rc>
    <rc><c>O </c><c>   2</c></rc>
    <rc><c>O </c><c>   2</c></rc>
    <rc><c>O </c><c>   2</c></rc>
    <rc><c>O </c><c>   2</c></rc>
    <rc><c>O </c><c>   2</c></rc>
    <rc><c>O </c><c>   2</c></rc>
    <rc><c>O </c><c>   2</c></rc>
    <rc><c>O </c><c>   2</c></rc>
    <rc><c>O </c><c>   2</c></rc>
    <rc><c>O </c><c>   2</c></rc>
    <rc><c>O </c><c>   2</c></rc>
    <rc><c>O </c><c>   2</c></rc>
    <rc><c>O </c><c>   2</c></rc>
    <rc><c>O </c><c>   2</c></rc>
    <rc><c>O </c><c>   2</c></rc>
    <rc><c>O </c><c>   2</c></rc>
    <rc><c>O </c><c>   2</c></rc>
    <rc><c>O </c><c>   2</c></rc>
    <rc><c>O </c><c>   2</c></rc>
    <rc><c>O </c><c>   2</c></rc>
    <rc><c>O </c><c>   2</c></rc>
    <rc><c>O </c><c>   2</c></rc>
    <rc><c>O </c><c>   2</c></rc>
    <rc><c>O </c><c>   2</c></rc>
    <rc><c>O </c><c>   2</c></rc>
    <rc><c>O </c><c>   2</c></rc>
    <rc><c>O </c><c>   2</c></rc>
    <rc><c>O </c><c>   2</c></rc>
    <rc><c>O </c><c>   2</c></rc>
    <rc><c>O </c><c>   2</c></rc>
    <rc><c>O </c><c>   2</c></rc>
    <rc><c>O </c><c>   2</c></rc>
    <rc><c>O </c><c>   2</c></rc>
    <rc><c>O </c><c>   2</c></rc>
    <rc><c>O </c><c>   2</c></rc>
    <rc><c>O </c><c>   2</c></rc>
    <rc><c>O </c><c>   2</c></rc>
    <rc><c>O </c><c>   2</c></rc>
    <rc><c>O </c><c>   2</c></rc>
    <rc><c>O </c><c>   2</c></rc>
    <rc><c>O </c><c>   2</c></rc>
    <rc><c>O </c><c>   2</c></rc>
    <rc><c>O </c><c>   2</c></rc>
    <rc><c>O </c><c>   2</c></rc>
    <rc><c>O </c><c>   2</c></rc>
    <rc><c>O </c><c>   2</c></rc>
    <rc><c>O </c><c>   2</c></rc>
    <rc><c>O </c><c>   2</c></rc>
    <rc><c>O </c><c>   2</c></rc>
    <rc><c>O </c><c>   2</c></rc>
    <rc><c>O </c><c>   2</c></rc>
    <rc><c>O </c><c>   2</c></rc>
    <rc><c>O </c><c>   2</c></rc>
    <rc><c>O </c><c>   2</c></rc>
    <rc><c>O </c><c>   2</c></rc>
    <rc><c>O </c><c>   2</c></rc>
    <rc><c>O </c><c>   2</c></rc>
    <rc><c>O </c><c>   2</c></rc>
    <rc><c>O </c><c>   2</c></rc>
    <rc><c>O </c><c>   2</c></rc>
    <rc><c>O </c><c>   2</c></rc>
    <rc><c>O </c><c>   2</c></rc>
    <rc><c>O </c><c>   2</c></rc>
    <rc><c>O </c><c>   2</c></rc>
    <rc><c>O </c><c>   2</c></rc>
    <rc><c>O </c><c>   2</c></rc>
    <rc><c>O </c><c>   2</c></rc>
    <rc><c>O </c><c>   2</c></rc>
    <rc><c>O </c><c>   2</c></rc>
    <rc><c>O </c><c>   2</c></rc>
    <rc><c>O </c><c>   2</c></rc>
    <rc><c>O </c><c>   2</c></rc>
    <rc><c>O </c><c>   2</c></rc>
    <rc><c>O </c><c>   2</c></rc>
    <rc><c>O </c><c>   2</c></rc>
    <rc><c>O </c><c>   2</c></rc>
    <rc><c>O </c><c>   2</c></rc>
    <rc><c>O </c><c>   2</c></rc>
    <rc><c>O </c><c>   2</c></rc>
    <rc><c>O </c><c>   2</c></rc>
    <rc><c>O </c><c>   2</c></rc>
    <rc><c>O </c><c>   2</c></rc>
    <rc><c>O </c><c>   2</c></rc>
    <rc><c>O </c><c>   2</c></rc>
    <rc><c>O </c><c>   2</c></rc>
    <rc><c>O </c><c>   2</c></rc>
    <rc><c>O </c><c>   2</c></rc>
    <rc><c>O </c><c>   2</c></rc>
    <rc><c>O </c><c>   2</c></rc>
    <rc><c>O </c><c>   2</c></rc>
    <rc><c>O </c><c>   2</c></rc>
    <rc><c>O </c><c>   2</c></rc>
    <rc><c>O </c><c>   2</c></rc>
    <rc><c>O </c><c>   2</c></rc>
    <rc><c>O </c><c>   2</c></rc>
    <rc><c>O </c><c>   2</c></rc>
    <rc><c>O </c><c>   2</c></rc>
    <rc><c>O </c><c>   2</c></rc>
    <rc><c>O </c><c>   2</c></rc>
    <rc><c>O </c><c>   2</c></rc>
    <rc><c>O </c><c>   2</c></rc>
    <rc><c>O </c><c>   2</c></rc>
    <rc><c>O </c><c>   2</c></rc>
    <rc><c>O </c><c>   2</c></rc>
    <rc><c>O </c><c>   2</c></rc>
    <rc><c>O </c><c>   2</c></rc>
    <rc><c>O </c><c>   2</c></rc>
    <rc><c>O </c><c>   2</c></rc>
    <rc><c>O </c><c>   2</c></rc>
    <rc><c>O </c><c>   2</c></rc>
    <rc><c>O </c><c>   2</c></rc>
    <rc><c>O </c><c>   2</c></rc>
    <rc><c>O </c><c>   2</c></rc>
    <rc><c>O </c><c>   2</c></rc>
    <rc><c>O </c><c>   2</c></rc>
    <rc><c>O </c><c>   2</c></rc>
    <rc><c>O </c><c>   2</c></rc>
    <rc><c>O </c><c>   2</c></rc>
    <rc><c>O </c><c>   2</c></rc>
    <rc><c>O </c><c>   2</c></rc>
    <rc><c>O </c><c>   2</c></rc>
    <rc><c>O </c><c>   2</c></rc>
    <rc><c>O </c><c>   2</c></rc>
    <rc><c>O </c><c>   2</c></rc>
    <rc><c>O </c><c>   2</c></rc>
    <rc><c>O </c><c>   2</c></rc>
    <rc><c>O </c><c>   2</c></rc>
    <rc><c>O </c><c>   2</c></rc>
    <rc><c>O </c><c>   2</c></rc>
    <rc><c>O </c><c>   2</c></rc>
    <rc><c>O </c><c>   2</c></rc>
    <rc><c>O </c><c>   2</c></rc>
    <rc><c>O </c><c>   2</c></rc>
    <rc><c>O </c><c>   2</c></rc>
    <rc><c>O </c><c>   2</c></rc>
    <rc><c>O </c><c>   2</c></rc>
    <rc><c>O </c><c>   2</c></rc>
    <rc><c>O </c><c>   2</c></rc>
    <rc><c>O </c><c>   2</c></rc>
    <rc><c>O </c><c>   2</c></rc>
    <rc><c>O </c><c>   2</c></rc>
    <rc><c>O </c><c>   2</c></rc>
    <rc><c>O </c><c>   2</c></rc>
    <rc><c>O </c><c>   2</c></rc>
    <rc><c>O </c><c>   2</c></rc>
    <rc><c>O </c><c>   2</c></rc>
    <rc><c>O </c><c>   2</c></rc>
    <rc><c>O </c><c>   2</c></rc>
    <rc><c>O </c><c>   2</c></rc>
    <rc><c>O </c><c>   2</c></rc>
    <rc><c>O </c><c>   2</c></rc>
    <rc><c>O </c><c>   2</c></rc>
    <rc><c>O </c><c>   2</c></rc>
    <rc><c>O </c><c>   2</c></rc>
    <rc><c>O </c><c>   2</c></rc>
    <rc><c>O </c><c>   2</c></rc>
    <rc><c>O </c><c>   2</c></rc>
    <rc><c>O </c><c>   2</c></rc>
    <rc><c>O </c><c>   2</c></rc>
    <rc><c>O </c><c>   2</c></rc>
    <rc><c>O </c><c>   2</c></rc>
    <rc><c>O </c><c>   2</c></rc>
    <rc><c>O </c><c>   2</c></rc>
    <rc><c>O </c><c>   2</c></rc>
    <rc><c>O </c><c>   2</c></rc>
    <rc><c>O </c><c>   2</c></rc>
    <rc><c>O </c><c>   2</c></rc>
    <rc><c>O </c><c>   2</c></rc>
    <rc><c>O </c><c>   2</c></rc>
    <rc><c>O </c><c>   2</c></rc>
    <rc><c>O </c><c>   2</c></rc>
    <rc><c>O </c><c>   2</c></rc>
    <rc><c>O </c><c>   2</c></rc>
    <rc><c>O </c><c>   2</c></rc>
    <rc><c>O </c><c>   2</c></rc>
    <rc><c>O </c><c>   2</c></rc>
    <rc><c>O </c><c>   2</c></rc>
    <rc><c>O </c><c>   2</c></rc>
    <rc><c>O </c><c>   2</c></rc>
    <rc><c>O </c><c>   2</c></rc>
    <rc><c>O </c><c>   2</c></rc>
    <rc><c>O </c><c>   2</c></rc>
    <rc><c>O </c><c>   2</c></rc>
    <rc><c>O </c><c>   2</c></rc>
    <rc><c>O </c><c>   2</c></rc>
    <rc><c>O </c><c>   2</c></rc>
    <rc><c>O </c><c>   2</c></rc>
    <rc><c>O </c><c>   2</c></rc>
    <rc><c>O </c><c>   2</c></rc>
    <rc><c>O </c><c>   2</c></rc>
    <rc><c>O </c><c>   2</c></rc>
    <rc><c>O </c><c>   2</c></rc>
    <rc><c>O </c><c>   2</c></rc>
    <rc><c>O </c><c>   2</c></rc>
    <rc><c>O </c><c>   2</c></rc>
    <rc><c>O </c><c>   2</c></rc>
    <rc><c>O </c><c>   2</c></rc>
    <rc><c>O </c><c>   2</c></rc>
    <rc><c>O </c><c>   2</c></rc>
    <rc><c>O </c><c>   2</c></rc>
    <rc><c>O </c><c>   2</c></rc>
    <rc><c>O </c><c>   2</c></rc>
    <rc><c>O </c><c>   2</c></rc>
    <rc><c>O </c><c>   2</c></rc>
    <rc><c>O </c><c>   2</c></rc>
    <rc><c>O </c><c>   2</c></rc>
    <rc><c>O </c><c>   2</c></rc>
    <rc><c>O </c><c>   2</c></rc>
    <rc><c>O </c><c>   2</c></rc>
    <rc><c>O </c><c>   2</c></rc>
    <rc><c>O </c><c>   2</c></rc>
    <rc><c>O </c><c>   2</c></rc>
    <rc><c>O </c><c>   2</c></rc>
    <rc><c>O </c><c>   2</c></rc>
    <rc><c>O </c><c>   2</c></rc>
    <rc><c>O </c><c>   2</c></rc>
    <rc><c>O </c><c>   2</c></rc>
    <rc><c>O </c><c>   2</c></rc>
    <rc><c>O </c><c>   2</c></rc>
    <rc><c>O </c><c>   2</c></rc>
    <rc><c>O </c><c>   2</c></rc>
    <rc><c>O </c><c>   2</c></rc>
    <rc><c>O </c><c>   2</c></rc>
    <rc><c>O </c><c>   2</c></rc>
    <rc><c>O </c><c>   2</c></rc>
    <rc><c>O </c><c>   2</c></rc>
    <rc><c>O </c><c>   2</c></rc>
    <rc><c>O </c><c>   2</c></rc>
    <rc><c>O </c><c>   2</c></rc>
    <rc><c>O </c><c>   2</c></rc>
    <rc><c>O </c><c>   2</c></rc>
    <rc><c>O </c><c>   2</c></rc>
    <rc><c>O </c><c>   2</c></rc>
    <rc><c>O </c><c>   2</c></rc>
    <rc><c>O </c><c>   2</c></rc>
    <rc><c>O </c><c>   2</c></rc>
    <rc><c>O </c><c>   2</c></rc>
    <rc><c>O </c><c>   2</c></rc>
    <rc><c>O </c><c>   2</c></rc>
    <rc><c>O </c><c>   2</c></rc>
    <rc><c>O </c><c>   2</c></rc>
    <rc><c>O </c><c>   2</c></rc>
    <rc><c>O </c><c>   2</c></rc>
    <rc><c>O </c><c>   2</c></rc>
    <rc><c>O </c><c>   2</c></rc>
    <rc><c>O </c><c>   2</c></rc>
    <rc><c>O </c><c>   2</c></rc>
    <rc><c>O </c><c>   2</c></rc>
    <rc><c>O </c><c>   2</c></rc>
    <rc><c>O </c><c>   2</c></rc>
    <rc><c>O </c><c>   2</c></rc>
    <rc><c>O </c><c>   2</c></rc>
    <rc><c>O </c><c>   2</c></rc>
    <rc><c>O </c><c>   2</c></rc>
    <rc><c>O </c><c>   2</c></rc>
    <rc><c>O </c><c>   2</c></rc>
    <rc><c>O </c><c>   2</c></rc>
    <rc><c>O </c><c>   2</c></rc>
    <rc><c>O </c><c>   2</c></rc>
    <rc><c>O </c><c>   2</c></rc>
   </set>
  </array>
  <array name="atomtypes" >
   <dimension dim="1">type</dimension>
   <field type="int">atomspertype</field>
   <field type="string">element</field>
   <field>mass</field>
   <field>valence</field>
   <field type="string">pseudopotential</field>
   <set>
    <rc><c> 108</c><c>Al</c><c>     26.98200000</c><c>      3.00000000</c><c>  PAW Al_GW 19Mar2012                   </c></rc>
    <rc><c> 290</c><c>O </c><c>     16.00000000</c><c>      6.00000000</c><c>  PAW O_GW 19Mar2012                    </c></rc>
   </set>
  </array>
 </atominfo>
 <structure name="initialpos" >
  <crystal>
   <varray name="basis" >
    <v>      14.41508400       0.00000000       0.00000000 </v>
    <v>      -7.20754200      12.48382800       0.00000000 </v>
    <v>       0.00000000       0.00000000      33.71625400 </v>
   </varray>
   <i name="volume">   6067.42296166 </i>
   <varray name="rec_basis" >
    <v>       0.06937178       0.04005182      -0.00000000 </v>
    <v>       0.00000000       0.08010363       0.00000000 </v>
    <v>       0.00000000      -0.00000000       0.02965929 </v>
   </varray>
  </crystal>
  <varray name="positions" >
   <v>       0.00000000       0.00000000       0.05753742 </v>
   <v>       0.11111100       0.22222233       0.00729916 </v>
   <v>       0.11111100       0.22222233       0.12237401 </v>
   <v>       0.22222233       0.11111100       0.07213535 </v>
   <v>       0.22222233       0.11111100       0.18721020 </v>
   <v>       0.00000000       0.00000000       0.13697194 </v>
   <v>       0.00000000       0.00000000       0.25204679 </v>
   <v>       0.11111100       0.22222233       0.20180852 </v>
   <v>       0.11111100       0.22222233       0.31688337 </v>
   <v>       0.22222233       0.11111100       0.26664471 </v>
   <v>       0.22222233       0.11111100       0.38171956 </v>
   <v>       0.00000000       0.00000000       0.33148130 </v>
   <v>       0.00000000       0.33333333       0.05753742 </v>
   <v>       0.11111100       0.55555567       0.00729916 </v>
   <v>       0.11111100       0.55555567       0.12237401 </v>
   <v>       0.22222233       0.44444433       0.07213535 </v>
   <v>       0.22222233       0.44444433       0.18721020 </v>
   <v>       0.00000000       0.33333333       0.13697194 </v>
   <v>       0.00000000       0.33333333       0.25204679 </v>
   <v>       0.11111100       0.55555567       0.20180852 </v>
   <v>       0.11111100       0.55555567       0.31688337 </v>
   <v>       0.22222233       0.44444433       0.26664471 </v>
   <v>       0.22222233       0.44444433       0.38171956 </v>
   <v>       0.00000000       0.33333333       0.33148130 </v>
   <v>       0.00000000       0.66666667       0.05753742 </v>
   <v>       0.11111100       0.88888900       0.00729916 </v>
   <v>       0.11111100       0.88888900       0.12237401 </v>
   <v>       0.22222233       0.77777767       0.07213535 </v>
   <v>       0.22222233       0.77777767       0.18721020 </v>
   <v>       0.00000000       0.66666667       0.13697194 </v>
   <v>       0.00000000       0.66666667       0.25204679 </v>
   <v>       0.11111100       0.88888900       0.20180852 </v>
   <v>       0.11111100       0.88888900       0.31688337 </v>
   <v>       0.22222233       0.77777767       0.26664471 </v>
   <v>       0.22222233       0.77777767       0.38171956 </v>
   <v>       0.00000000       0.66666667       0.33148130 </v>
   <v>       0.33333333       0.00000000       0.05753742 </v>
   <v>       0.44444433       0.22222233       0.00729916 </v>
   <v>       0.44444433       0.22222233       0.12237401 </v>
   <v>       0.55555567       0.11111100       0.07213535 </v>
   <v>       0.55555567       0.11111100       0.18721020 </v>
   <v>       0.33333333       0.00000000       0.13697194 </v>
   <v>       0.33333333       0.00000000       0.25204679 </v>
   <v>       0.44444433       0.22222233       0.20180852 </v>
   <v>       0.44444433       0.22222233       0.31688337 </v>
   <v>       0.55555567       0.11111100       0.26664471 </v>
   <v>       0.55555567       0.11111100       0.38171956 </v>
   <v>       0.33333333       0.00000000       0.33148130 </v>
   <v>       0.33333333       0.33333333       0.05753742 </v>
   <v>       0.44444433       0.55555567       0.00729916 </v>
   <v>       0.44444433       0.55555567       0.12237401 </v>
   <v>       0.55555567       0.44444433       0.07213535 </v>
   <v>       0.55555567       0.44444433       0.18721020 </v>
   <v>       0.33333333       0.33333333       0.13697194 </v>
   <v>       0.33333333       0.33333333       0.25204679 </v>
   <v>       0.44444433       0.55555567       0.20180852 </v>
   <v>       0.44444433       0.55555567       0.31688337 </v>
   <v>       0.55555567       0.44444433       0.26664471 </v>
   <v>       0.55555567       0.44444433       0.38171956 </v>
   <v>       0.33333333       0.33333333       0.33148130 </v>
   <v>       0.33333333       0.66666667       0.05753742 </v>
   <v>       0.44444433       0.88888900       0.00729916 </v>
   <v>       0.44444433       0.88888900       0.12237401 </v>
   <v>       0.55555567       0.77777767       0.07213535 </v>
   <v>       0.55555567       0.77777767       0.18721020 </v>
   <v>       0.33333333       0.66666667       0.13697194 </v>
   <v>       0.33333333       0.66666667       0.25204679 </v>
   <v>       0.44444433       0.88888900       0.20180852 </v>
   <v>       0.44444433       0.88888900       0.31688337 </v>
[...]
   <v>       0.88594160       0.10388835       0.32268389 </v>
   <v>       0.66052240      -0.00155005       0.32550654 </v>
   <v>       0.66666667       0.33333333       0.05832836 </v>
   <v>       0.77789229       0.55564631       0.02944035 </v>
   <v>       0.77810716       0.55570722       0.12153643 </v>
   <v>       0.88890144       0.44441584       0.07056136 </v>
   <v>       0.88932819       0.44462853       0.17928322 </v>
   <v>       0.66666667       0.33333333       0.13391866 </v>
   <v>       0.66666667       0.33333333       0.24649390 </v>
   <v>       0.77772990       0.55423256       0.19747237 </v>
   <v>       0.77369303       0.55199576       0.30824362 </v>
   <v>       0.89085658       0.44890374       0.25580075 </v>
   <v>       0.88791067       0.44375678       0.34601624 </v>
   <v>       0.66666667       0.33333333       0.32758062 </v>
   <v>       0.66670147       0.66675584       0.05829066 </v>
   <v>       0.77788372       0.88878333       0.02949862 </v>
   <v>       0.77760231       0.88851196       0.12147247 </v>
   <v>       0.88899014       0.77781867       0.07072286 </v>
   <v>       0.88895023       0.77799717       0.17919589 </v>
   <v>       0.66609600       0.66617212       0.13367249 </v>
   <v>       0.66378975       0.66241325       0.24458639 </v>
   <v>       0.77667871       0.88791833       0.19762946 </v>
   <v>       0.76882460       0.88039070       0.30691701 </v>
   <v>       0.88786130       0.77698516       0.25239694 </v>
   <v>       0.89611165       0.78205291       0.32268389 </v>
   <v>       0.65845392       0.66426685       0.32470945 </v>
   <v>       0.10242025       0.00030655       0.09647829 </v>
   <v>       0.22953582       0.00982911       0.03394287 </v>
   <v>      -0.00030655       0.10211370       0.09647829 </v>
   <v>       0.23149320       0.23150165       0.09657613 </v>
   <v>       0.32354597       0.21972109       0.03387035 </v>
   <v>       0.11339838       0.10388399       0.03397734 </v>
   <v>       0.32502035       0.11151933       0.21906037 </v>
   <v>       0.11073169       0.12101294       0.15784304 </v>
   <v>       0.22356203       0.21480885       0.21885393 </v>
   <v>       0.12123396       0.01068357       0.21839412 </v>
   <v>       0.21319844       0.32384385       0.15823821 </v>
   <v>       0.00982935       0.22346375       0.15809201 </v>
   <v>       0.21286968       0.23266748       0.33626659 </v>
   <v>       0.00428051       0.23818313       0.27905046 </v>
   <v>       0.10643490       0.32562326       0.34852332 </v>
   <v>       0.01370261       0.12227277       0.33677616 </v>
   <v>       0.10522143       0.10431936       0.27852770 </v>
   <v>       0.23390262      -0.00428051       0.27905046 </v>
   <v>       0.10252907       0.33384605       0.09648992 </v>
   <v>       0.22933490       0.34279791       0.03394188 </v>
   <v>      -0.00009691       0.43541137       0.09663880 </v>
   <v>       0.23137969       0.56461476       0.09653769 </v>
   <v>       0.32361859       0.55316821       0.03374783 </v>
   <v>       0.11342259       0.43702484       0.03374269 </v>
   <v>       0.32522859       0.44545676       0.21961576 </v>
   <v>       0.11146932       0.45482901       0.15822419 </v>
   <v>       0.22378404       0.54891523       0.22049887 </v>
   <v>       0.12081380       0.34620142       0.21854953 </v>
   <v>       0.21364267       0.65715109       0.15850272 </v>
   <v>       0.01000062       0.55672577       0.15811266 </v>
   <v>       0.21681853       0.56515082       0.35058288 </v>
   <v>       0.00115758       0.56453423       0.28551250 </v>
   <v>       0.10583879       0.65524633       0.35082771 </v>
   <v>       0.01194281       0.45195854       0.35003959 </v>
   <v>       0.10617552       0.44222928       0.28518723 </v>
   <v>       0.23281295       0.34210457       0.28166524 </v>
   <v>       0.10239078       0.66682519       0.09653411 </v>
   <v>       0.22954995       0.67638141       0.03374783 </v>
   <v>       0.00000845       0.76850680       0.09657613 </v>
   <v>       0.23131698       0.89747093       0.09648992 </v>
   <v>       0.32360258       0.88657741       0.03374269 </v>
   <v>       0.11346335       0.77066510       0.03394188 </v>
   <v>       0.32513153       0.77621596       0.22049887 </v>
   <v>       0.11064508       0.78680156       0.15823821 </v>
   <v>       0.22538795       0.87918620       0.21854953 </v>
   <v>       0.12022851       0.67477141       0.21961576 </v>
   <v>       0.21363407       0.99017065       0.15809201 </v>
   <v>       0.01028091       0.88926831       0.15784304 </v>
   <v>       0.21918802       0.89356510       0.34852332 </v>
   <v>      -0.00090207       0.89477857       0.27852770 </v>
   <v>       0.10856982       0.98629739       0.33677616 </v>
   <v>       0.01979747       0.78713032       0.33626659 </v>
   <v>       0.10929162       0.76718705       0.28166524 </v>
   <v>       0.23211785       0.66901587       0.28617728 </v>
   <v>       0.43550828       0.00009691       0.09663880 </v>
   <v>       0.56285913       0.00956202       0.03377021 </v>
   <v>       0.33330204       0.10197996       0.09662102 </v>
   <v>       0.56461197       0.23117411       0.09676003 </v>
   <v>       0.65705126       0.22001358       0.03377574 </v>
   <v>       0.44675019       0.10384026       0.03390633 </v>
   <v>       0.65660848       0.10928015       0.21977956 </v>
   <v>       0.44379776       0.12000440       0.15843223 </v>
   <v>       0.55677846       0.21350270       0.21918599 </v>
   <v>       0.45400217       0.00813854       0.21878062 </v>
   <v>       0.54642430       0.32379708       0.15845328 </v>
   <v>       0.34349136       0.22292212       0.15831651 </v>
   <v>       0.54779624       0.22757265       0.34959944 </v>
   <v>       0.33719404       0.23318132       0.28038849 </v>
   <v>       0.43915665       0.32206166       0.34811327 </v>
   <v>       0.34665342       0.11645192       0.33628883 </v>
   <v>       0.44163213       0.10097178       0.28197760 </v>
   <v>       0.56337665      -0.00115758       0.28551250 </v>
   <v>       0.43577980       0.33359762       0.09644435 </v>
   <v>       0.56296265       0.34294874       0.03377574 </v>
   <v>       0.33317481       0.43556560       0.09653411 </v>
   <v>       0.56458863       0.56449172       0.09663880 </v>
   <v>       0.65709040       0.55324981       0.03390633 </v>
   <v>       0.44670323       0.43714087       0.03377021 </v>
   <v>       0.65672457       0.44322154       0.21918599 </v>
   <v>       0.44327423       0.45327519       0.15811266 </v>
   <v>       0.55413670       0.54599783       0.21878062 </v>
   <v>       0.45267200       0.34339152       0.21977956 </v>
   <v>       0.54517099       0.65664064       0.15822419 </v>
   <v>       0.34284891       0.55649191       0.15850272 </v>
   <v>       0.54804146       0.55998460       0.35003959 </v>
   <v>       0.33098413       0.56310197       0.28617728 </v>
   <v>       0.43484918       0.65166804       0.35058288 </v>
   <v>       0.34475367       0.45059280       0.35082771 </v>
   <v>       0.43546577       0.43662335       0.28551250 </v>
   <v>       0.56621744       0.33514491       0.28424056 </v>
   <v>       0.43538524       0.66676493       0.09653769 </v>
   <v>       0.56297516       0.67639742       0.03374269 </v>
   <v>       0.33323507       0.76862031       0.09653769 </v>
   <v>       0.56443440       0.89760922       0.09653411 </v>
   <v>       0.65720209       0.88653665       0.03394188 </v>
   <v>       0.44683179       0.77045005       0.03374783 </v>
   <v>       0.65379858       0.77461205       0.21854953 </v>
   <v>       0.44350809       0.78635733       0.15850272 </v>
   <v>       0.55454324       0.87977149       0.21961576 </v>
   <v>       0.45108477       0.67486847       0.22049887 </v>
   <v>       0.54672481       0.98999938       0.15811266 </v>
   <v>       0.34335936       0.88853068       0.15822419 </v>
   <v>       0.54940720       0.89416121       0.35082771 </v>
   <v>       0.33605377       0.89382448       0.28518723 </v>
   <v>       0.44001540       0.98805719       0.35003959 </v>
   <v>       0.34833196       0.78318147       0.35058288 </v>
   <v>       0.43689803       0.76788215       0.28617728 </v>
   <v>       0.55777072       0.66394623       0.28518723 </v>
   <v>       0.76849835      -0.00000845       0.09657613 </v>
   <v>       0.89611601       0.00951406       0.03397734 </v>
   <v>       0.66640238       0.10218218       0.09644435 </v>
   <v>       0.89802004       0.23132208       0.09662102 </v>
   <v>      -0.00982911       0.21970638       0.03394287 </v>
   <v>       0.78027891       0.10382454       0.03387035 </v>
   <v>       0.98931643       0.11055006       0.21839412 </v>
   <v>       0.77707788       0.12056958       0.15831651 </v>
   <v>       0.88848067       0.21350068       0.21906037 </v>
   <v>       0.78519115       0.00875285       0.21885393 </v>
   <v>       0.87999560       0.32379369       0.15843223 </v>
   <v>       0.67620292       0.22262755       0.15845328 </v>
   <v>       0.88354808       0.23020184       0.33628883 </v>
   <v>       0.66485509       0.23107252       0.28424056 </v>
   <v>       0.77242735       0.32022392       0.34959944 </v>
   <v>       0.67793834       0.11709533       0.34811327 </v>
   <v>       0.76681868       0.10401272       0.28038849 </v>
   <v>       0.89568064       0.00090207       0.27852770 </v>
   <v>       0.76882589       0.33343786       0.09676003 </v>
   <v>       0.89615974       0.34290960       0.03390633 </v>
   <v>       0.66656214       0.43538803       0.09676003 </v>
   <v>       0.89781782       0.56422020       0.09644435 </v>
   <v>      -0.00956202       0.55329677       0.03377021 </v>
   <v>       0.77998642       0.43703735       0.03377574 </v>
   <v>       0.99186146       0.44586330       0.21878062 </v>
   <v>       0.77737245       0.45357570       0.15845328 </v>
   <v>       0.89071985       0.54732800       0.21977956 </v>
   <v>       0.78649730       0.34327543       0.21918599 </v>
   <v>       0.87943042       0.65650864       0.15831651 </v>
   <v>       0.67620631       0.55620224       0.15843223 </v>
   <v>       0.88290467       0.56084335       0.34811327 </v>
   <v>       0.65933964       0.55836787       0.28197760 </v>
   <v>       0.76979816       0.65334658       0.33628883 </v>
   <v>       0.67977608       0.45220376       0.34959944 </v>
   <v>       0.76892748       0.43378256       0.28424056 </v>
   <v>       0.89902822       0.34066036       0.28197760 </v>
   <v>       0.76867792       0.66669796       0.09662102 </v>
   <v>       0.89617546       0.67645403       0.03387035 </v>
   <v>       0.66615395       0.76868302       0.09648992 </v>
   <v>       0.89788630       0.89757975       0.09647829 </v>
   <v>      -0.00951406       0.88660162       0.03397734 </v>
   <v>       0.78029362       0.77046418       0.03394287 </v>
   <v>       0.99124715       0.77643797       0.21885393 </v>
   <v>       0.77653625       0.78636593       0.15809201 </v>
   <v>       0.88944994       0.87876604       0.21839412 </v>
   <v>       0.78649932       0.67497965       0.21906037 </v>
   <v>       0.87898706       0.98971909       0.15784304 </v>
   <v>       0.67615615       0.88935492       0.15823821 </v>
   <v>       0.87772723       0.89143018       0.33677616 </v>
   <v>       0.65789543       0.89070838       0.28166524 </v>
   <v>       0.76733252       0.98020253       0.33626659 </v>
   <v>       0.67437674       0.78081198       0.34852332 </v>
   <v>       0.76181687       0.76609738       0.27905046 </v>
   <v>       0.89598728       0.66280596       0.28038849 </v>
   <v>      -0.00000000      -0.00000000       0.44531353 </v>
   <v>      -0.00000000      -0.00000000       0.48377266 </v>
   <v>      -0.01542032       0.11414253       0.42248525 </v>
   <v>      -0.01693624       0.11829060       0.48499229 </v>
   <v>      -0.02987550       0.19632614       0.42047750 </v>
   <v>      -0.05293830       0.18292993       0.48428750 </v>
   <v>      -0.00346776       0.35640668       0.43262506 </v>
   <v>      -0.00738584       0.35605469       0.46992480 </v>
   <v>       0.00197317       0.50125423       0.43382627 </v>
   <v>       0.00290152       0.50142758       0.47084661 </v>
   <v>      -0.00433585       0.63907953       0.43205064 </v>
   <v>      -0.00648695       0.63722378       0.47064411 </v>
   <v>      -0.03068093       0.77227458       0.41993834 </v>
   <v>      -0.05204582       0.76524588       0.47966673 </v>
   <v>      -0.02333148       0.86411230       0.41412622 </v>
   <v>      -0.01870839       0.86638277       0.48910683 </v>
   <v>       0.12956285       0.01542032       0.42248525 </v>
   <v>       0.13522684       0.01693624       0.48499229 </v>
   <v>       0.13588770       0.11255623       0.41412622 </v>
   <v>       0.13361723       0.11490884       0.48910683 </v>
   <v>       0.11310336       0.22336133       0.43716947 </v>
   <v>       0.11215521       0.22570902       0.47262990 </v>
   <v>       0.10991059       0.34733969       0.43698612 </v>
   <v>       0.10703994       0.34529462       0.47332610 </v>
   <v>       0.11778140       0.48988631       0.43392675 </v>
   <v>       0.12067907       0.48802049       0.47028774 </v>
   <v>       0.11872973       0.62686851       0.43296374 </v>
   <v>       0.12139201       0.63162864       0.47008524 </v>
   <v>       0.11025174       0.76208575       0.43614788 </v>
   <v>       0.10658824       0.76042609       0.47261718 </v>
   <v>       0.11025797       0.88689664       0.43716947 </v>
   <v>       0.11355381       0.88784479       0.47262990 </v>
   <v>       0.22620163       0.02987550       0.42047750 </v>
   <v>       0.23586823       0.05293830       0.48428750 </v>
   <v>       0.24295571       0.12770285       0.37617003 </v>
   <v>       0.23882889       0.12196354       0.55068905 </v>
   <v>       0.22772542       0.19704449       0.41993834 </v>
   <v>       0.23475412       0.18270829       0.47966673 </v>
   <v>       0.23791425       0.34816599       0.43614788 </v>
   <v>       0.23957391       0.34616216       0.47261718 </v>
   <v>       0.24124378       0.48340647       0.42837669 </v>
   <v>       0.24349196       0.48607971       0.46483821 </v>
   <v>       0.24676159       0.62297046       0.43511755 </v>
   <v>       0.24619178       0.62259836       0.47181296 </v>
   <v>       0.24216269       0.75875622       0.42837669 </v>
   <v>       0.24258775       0.75650804       0.46483821 </v>
   <v>       0.23742910       0.89008941       0.43698612 </v>
   <v>       0.23825467       0.89296006       0.47332610 </v>
   <v>       0.35987445       0.00346776       0.43262506 </v>
   <v>       0.36344053       0.00738584       0.46992480 </v>
   <v>       0.35570955       0.12185275       0.42686688 </v>
   <v>       0.35843521       0.12132872       0.46723987 </v>
   <v>       0.36639459       0.24606389       0.43117589 </v>
   <v>       0.36717718       0.24635512       0.47037224 </v>
   <v>       0.36092047       0.35658462       0.43205064 </v>
   <v>       0.36277622       0.35628927       0.47064411 </v>
   <v>       0.37313149       0.49186122       0.43296374 </v>
   <v>       0.36837136       0.48976337       0.47008524 </v>
   <v>       0.37702954       0.62379113       0.43511755 </v>
   <v>       0.37740164       0.62359342       0.47181296 </v>
   <v>       0.37620887       0.75323841       0.43511755 </v>
   <v>       0.37640658       0.75380822       0.47181296 </v>
   <v>       0.37210491       0.88221860       0.43392675 </v>
   <v>       0.36734142       0.87932093       0.47028774 </v>
   <v>       0.49928106      -0.00197317       0.43382627 </v>
   <v>       0.49852606      -0.00290152       0.47084661 </v>
   <v>       0.49476332       0.12339593       0.43059298 </v>
   <v>       0.49249962       0.12147958       0.46746595 </v>
   <v>       0.49419325       0.24651242       0.43488207 </v>
   <v>       0.49047285       0.24290524       0.47143766 </v>
   <v>       0.50011303       0.37546891       0.43393688 </v>
   <v>       0.49987779       0.37634515       0.47054356 </v>
   <v>       0.49874577       0.50071894       0.43382627 </v>
   <v>       0.49857242       0.50147394       0.47084661 </v>
   <v>       0.51011369       0.62789509       0.43392675 </v>
   <v>       0.51197951       0.63265858       0.47028774 </v>
   <v>       0.51659353       0.75783731       0.42837669 </v>
   <v>       0.51392029       0.75741225       0.46483821 </v>
   <v>       0.50813878       0.88127027       0.43296374 </v>
   <v>       0.51023663       0.87860799       0.47008524 </v>
   <v>       0.64341538       0.00433585       0.43205064 </v>
   <v>       0.64371073       0.00648695       0.47064411 </v>
   <v>       0.62453109       0.12464412       0.43393688 </v>
   <v>       0.62365485       0.12353263       0.47054356 </v>
   <v>       0.62537290       0.25096095       0.43647926 </v>
   <v>       0.62252513       0.24682931       0.47272215 </v>
   <v>       0.62558805       0.37462710       0.43647926 </v>
   <v>       0.62430418       0.37747487       0.47272215 </v>
   <v>       0.62863261       0.50523668       0.43059298 </v>
   <v>       0.62897997       0.50750038       0.46746595 </v>
   <v>       0.64359332       0.64012555       0.43262506 </v>
   <v>       0.64394531       0.63655947       0.46992480 </v>
   <v>       0.65266031       0.76257090       0.43698612 </v>
   <v>       0.65470538       0.76174533       0.47332610 </v>
   <v>       0.65183401       0.88974826       0.43614788 </v>
   <v>       0.65383784       0.89341176       0.47261718 </v>
   <v>       0.80295551       0.03068093       0.41993834 </v>
   <v>       0.81729171       0.05204582       0.47966673 </v>
   <v>       0.75393611       0.12033070       0.43117589 </v>
   <v>       0.75364488       0.12082206       0.47037224 </v>
   <v>       0.75348758       0.24768083       0.43488207 </v>
   <v>       0.75709476       0.24756762       0.47143766 </v>
   <v>       0.74903905       0.37441195       0.43647926 </v>
   <v>       0.75317069       0.37569582       0.47272215 </v>
   <v>       0.75231917       0.50580675       0.43488207 </v>
   <v>       0.75243238       0.50952715       0.47143766 </v>
   <v>       0.76614320       0.64429045       0.42686688 </v>
   <v>       0.76289351       0.64156479       0.46723987 </v>
   <v>       0.80367386       0.77379837       0.42047750 </v>
   <v>       0.81707007       0.76413177       0.48428750 </v>
   <v>       0.77663867       0.88974203       0.43716947 </v>
   <v>       0.77429098       0.88644619       0.47262990 </v>
   <v>       0.88744377       0.02333148       0.41412622 </v>
   <v>       0.88509116       0.01870839       0.48910683 </v>
   <v>       0.87229715       0.11525286       0.37617003 </v>
   <v>       0.87803646       0.11686535       0.55068905 </v>
   <v>       0.87814725       0.23385680       0.42686688 </v>
   <v>       0.87867128       0.23710649       0.46723987 </v>
   <v>       0.87660407       0.37136739       0.43059298 </v>
   <v>       0.87852042       0.37102003       0.46746595 </v>
   <v>       0.87535588       0.49988697       0.43393688 </v>
   <v>       0.87646737       0.50012221       0.47054356 </v>
   <v>       0.87966930       0.63360541       0.43117589 </v>
   <v>       0.87917794       0.63282282       0.47037224 </v>
   <v>       0.88474714       0.75704429       0.37617003 </v>
   <v>       0.88313465       0.76117111       0.55068905 </v>
   <v>       0.88585747       0.87043715       0.42248525 </v>
   <v>       0.88170940       0.86477316       0.48499229 </v>
  </varray>
 </structure>
</modeling>
