NiAl                                    
            1
    14.415084    0.000000    0.000000
    -7.207542   12.483828    0.000000
     0.000000    0.000000   33.716254
   Al   O 
   108   290
Direct configuration=     1
   0.00000000  0.00000000  0.05753742
   0.11111100  0.22222233  0.00729916
   0.11111100  0.22222233  0.12237401
   0.22222233  0.11111100  0.07213535
   0.22222233  0.11111100  0.18721020
   0.00000000  0.00000000  0.13697194
   0.00000000  0.00000000  0.25204679
   0.11111100  0.22222233  0.20180852
   0.11111100  0.22222233  0.31688337
   0.22222233  0.11111100  0.26664471
   0.22222233  0.11111100  0.38171956
   0.00000000  0.00000000  0.33148130
   0.00000000  0.33333333  0.05753742
   0.11111100  0.55555567  0.00729916
   0.11111100  0.55555567  0.12237401
   0.22222233  0.44444433  0.07213535
   0.22222233  0.44444433  0.18721020
   0.00000000  0.33333333  0.13697194
   0.00000000  0.33333333  0.25204679
   0.11111100  0.55555567  0.20180852
   0.11111100  0.55555567  0.31688337
   0.22222233  0.44444433  0.26664471
   0.22222233  0.44444433  0.38171956
   0.00000000  0.33333333  0.33148130
   0.00000000  0.66666667  0.05753742
   0.11111100  0.88888900  0.00729916
   0.11111100  0.88888900  0.12237401
   0.22222233  0.77777767  0.07213535
   0.22222233  0.77777767  0.18721020
   0.00000000  0.66666667  0.13697194
   0.00000000  0.66666667  0.25204679
   0.11111100  0.88888900  0.20180852
   0.11111100  0.88888900  0.31688337
   0.22222233  0.77777767  0.26664471
   0.22222233  0.77777767  0.38171956
   0.00000000  0.66666667  0.33148130
   0.33333333  0.00000000  0.05753742
   0.44444433  0.22222233  0.00729916
   0.44444433  0.22222233  0.12237401
   0.55555567  0.11111100  0.07213535
   0.55555567  0.11111100  0.18721020
   0.33333333  0.00000000  0.13697194
   0.33333333  0.00000000  0.25204679
   0.44444433  0.22222233  0.20180852
   0.44444433  0.22222233  0.31688337
   0.55555567  0.11111100  0.26664471
   0.55555567  0.11111100  0.38171956
   0.33333333  0.00000000  0.33148130
   0.33333333  0.33333333  0.05753742
   0.44444433  0.55555567  0.00729916
   0.44444433  0.55555567  0.12237401
   0.55555567  0.44444433  0.07213535
   0.55555567  0.44444433  0.18721020
   0.33333333  0.33333333  0.13697194
   0.33333333  0.33333333  0.25204679
   0.44444433  0.55555567  0.20180852
   0.44444433  0.55555567  0.31688337
   0.55555567  0.44444433  0.26664471
   0.55555567  0.44444433  0.38171956
   0.33333333  0.33333333  0.33148130
   0.33333333  0.66666667  0.05753742
   0.44444433  0.88888900  0.00729916
   0.44444433  0.88888900  0.12237401
   0.55555567  0.77777767  0.07213535
   0.55555567  0.77777767  0.18721020
   0.33333333  0.66666667  0.13697194
   0.33333333  0.66666667  0.25204679
   0.44444433  0.88888900  0.20180852
   0.44444433  0.88888900  0.31688337
   0.55555567  0.77777767  0.26664471
   0.55555567  0.77777767  0.38171956
   0.33333333  0.66666667  0.33148130
   0.66666667  0.00000000  0.05753742
   0.77777767  0.22222233  0.00729916
   0.77777767  0.22222233  0.12237401
   0.88888900  0.11111100  0.07213535
   0.88888900  0.11111100  0.18721020
   0.66666667  0.00000000  0.13697194
   0.66666667  0.00000000  0.25204679
   0.77777767  0.22222233  0.20180852
   0.77777767  0.22222233  0.31688337
   0.88888900  0.11111100  0.26664471
   0.88888900  0.11111100  0.38171956
   0.66666667  0.00000000  0.33148130
   0.66666667  0.33333333  0.05753742
   0.77777767  0.55555567  0.00729916
   0.77777767  0.55555567  0.12237401
   0.88888900  0.44444433  0.07213535
   0.88888900  0.44444433  0.18721020
   0.66666667  0.33333333  0.13697194
   0.66666667  0.33333333  0.25204679
   0.77777767  0.55555567  0.20180852
   0.77777767  0.55555567  0.31688337
   0.88888900  0.44444433  0.26664471
   0.88888900  0.44444433  0.38171956
   0.66666667  0.33333333  0.33148130
   0.66666667  0.66666667  0.05753742
   0.77777767  0.88888900  0.00729916
   0.77777767  0.88888900  0.12237401
   0.88888900  0.77777767  0.07213535
   0.88888900  0.77777767  0.18721020
   0.66666667  0.66666667  0.13697194
   0.66666667  0.66666667  0.25204679
   0.77777767  0.88888900  0.20180852
   0.77777767  0.88888900  0.31688337
   0.88888900  0.77777767  0.26664471
   0.88888900  0.77777767  0.38171956
   0.66666667  0.66666667  0.33148130
   0.10204867  0.00000000  0.09725468
   0.22222233  0.00906233  0.03241810
   0.00000000  0.10204867  0.09725468
   0.23128467  0.23128467  0.09725468
   0.32427100  0.21315967  0.03241810
   0.12017367  0.11111100  0.03241810
   0.32427100  0.11111100  0.22692746
   0.11111100  0.12017367  0.16209126
   0.22222233  0.21315967  0.22692746
   0.12017367  0.00906233  0.22692746
   0.21315967  0.32427100  0.16209126
   0.00906233  0.22222233  0.16209126
   0.21315967  0.22222233  0.35660062
   0.00000000  0.23128467  0.29176404
   0.11111100  0.32427100  0.35660062
   0.00906233  0.12017367  0.35660062
   0.10204867  0.10204867  0.29176404
   0.23128467  0.00000000  0.29176404
   0.10204867  0.33333333  0.09725468
   0.22222233  0.34239567  0.03241810
   0.00000000  0.43538200  0.09725468
   0.23128467  0.56461800  0.09725468
   0.32427100  0.54649300  0.03241810
   0.12017367  0.44444433  0.03241810
   0.32427100  0.44444433  0.22692746
   0.11111100  0.45350700  0.16209126
   0.22222233  0.54649300  0.22692746
   0.12017367  0.34239567  0.22692746
   0.21315967  0.65760433  0.16209126
   0.00906233  0.55555567  0.16209126
   0.21315967  0.55555567  0.35660062
   0.00000000  0.56461800  0.29176404
   0.11111100  0.65760433  0.35660062
   0.00906233  0.45350700  0.35660062
   0.10204867  0.43538200  0.29176404
   0.23128467  0.33333333  0.29176404
   0.10204867  0.66666667  0.09725468
   0.22222233  0.67572900  0.03241810
   0.00000000  0.76871533  0.09725468
   0.23128467  0.89795133  0.09725468
   0.32427100  0.87982633  0.03241810
   0.12017367  0.77777767  0.03241810
   0.32427100  0.77777767  0.22692746
   0.11111100  0.78684033  0.16209126
   0.22222233  0.87982633  0.22692746
   0.12017367  0.67572900  0.22692746
   0.21315967  0.99093767  0.16209126
   0.00906233  0.88888900  0.16209126
   0.21315967  0.88888900  0.35660062
   0.00000000  0.89795133  0.29176404
   0.11111100  0.99093767  0.35660062
   0.00906233  0.78684033  0.35660062
   0.10204867  0.76871533  0.29176404
   0.23128467  0.66666667  0.29176404
   0.43538200  0.00000000  0.09725468
   0.55555567  0.00906233  0.03241810
   0.33333333  0.10204867  0.09725468
   0.56461800  0.23128467  0.09725468
   0.65760433  0.21315967  0.03241810
   0.45350700  0.11111100  0.03241810
   0.65760433  0.11111100  0.22692746
   0.44444433  0.12017367  0.16209126
   0.55555567  0.21315967  0.22692746
   0.45350700  0.00906233  0.22692746
   0.54649300  0.32427100  0.16209126
   0.34239567  0.22222233  0.16209126
   0.54649300  0.22222233  0.35660062
   0.33333333  0.23128467  0.29176404
   0.44444433  0.32427100  0.35660062
   0.34239567  0.12017367  0.35660062
   0.43538200  0.10204867  0.29176404
   0.56461800  0.00000000  0.29176404
   0.43538200  0.33333333  0.09725468
   0.55555567  0.34239567  0.03241810
   0.33333333  0.43538200  0.09725468
   0.56461800  0.56461800  0.09725468
   0.65760433  0.54649300  0.03241810
   0.45350700  0.44444433  0.03241810
   0.65760433  0.44444433  0.22692746
   0.44444433  0.45350700  0.16209126
   0.55555567  0.54649300  0.22692746
   0.45350700  0.34239567  0.22692746
   0.54649300  0.65760433  0.16209126
   0.34239567  0.55555567  0.16209126
   0.54649300  0.55555567  0.35660062
   0.33333333  0.56461800  0.29176404
   0.44444433  0.65760433  0.35660062
   0.34239567  0.45350700  0.35660062
   0.43538200  0.43538200  0.29176404
   0.56461800  0.33333333  0.29176404
   0.43538200  0.66666667  0.09725468
   0.55555567  0.67572900  0.03241810
   0.33333333  0.76871533  0.09725468
   0.56461800  0.89795133  0.09725468
   0.65760433  0.87982633  0.03241810
   0.45350700  0.77777767  0.03241810
   0.65760433  0.77777767  0.22692746
   0.44444433  0.78684033  0.16209126
   0.55555567  0.87982633  0.22692746
   0.45350700  0.67572900  0.22692746
   0.54649300  0.99093767  0.16209126
   0.34239567  0.88888900  0.16209126
   0.54649300  0.88888900  0.35660062
   0.33333333  0.89795133  0.29176404
   0.44444433  0.99093767  0.35660062
   0.34239567  0.78684033  0.35660062
   0.43538200  0.76871533  0.29176404
   0.56461800  0.66666667  0.29176404
   0.76871533  0.00000000  0.09725468
   0.88888900  0.00906233  0.03241810
   0.66666667  0.10204867  0.09725468
   0.89795133  0.23128467  0.09725468
   0.99093767  0.21315967  0.03241810
   0.78684033  0.11111100  0.03241810
   0.99093767  0.11111100  0.22692746
   0.77777767  0.12017367  0.16209126
   0.88888900  0.21315967  0.22692746
   0.78684033  0.00906233  0.22692746
   0.87982633  0.32427100  0.16209126
   0.67572900  0.22222233  0.16209126
   0.87982633  0.22222233  0.35660062
   0.66666667  0.23128467  0.29176404
   0.77777767  0.32427100  0.35660062
   0.67572900  0.12017367  0.35660062
   0.76871533  0.10204867  0.29176404
   0.89795133  0.00000000  0.29176404
   0.76871533  0.33333333  0.09725468
   0.88888900  0.34239567  0.03241810
   0.66666667  0.43538200  0.09725468
   0.89795133  0.56461800  0.09725468
   0.99093767  0.54649300  0.03241810
   0.78684033  0.44444433  0.03241810
   0.99093767  0.44444433  0.22692746
   0.77777767  0.45350700  0.16209126
   0.88888900  0.54649300  0.22692746
   0.78684033  0.34239567  0.22692746
   0.87982633  0.65760433  0.16209126
   0.67572900  0.55555567  0.16209126
   0.87982633  0.55555567  0.35660062
   0.66666667  0.56461800  0.29176404
   0.77777767  0.65760433  0.35660062
   0.67572900  0.45350700  0.35660062
   0.76871533  0.43538200  0.29176404
   0.89795133  0.33333333  0.29176404
   0.76871533  0.66666667  0.09725468
   0.88888900  0.67572900  0.03241810
   0.66666667  0.76871533  0.09725468
   0.89795133  0.89795133  0.09725468
   0.99093767  0.87982633  0.03241810
   0.78684033  0.77777767  0.03241810
   0.99093767  0.77777767  0.22692746
   0.77777767  0.78684033  0.16209126
   0.88888900  0.87982633  0.22692746
   0.78684033  0.67572900  0.22692746
   0.87982633  0.99093767  0.16209126
   0.67572900  0.88888900  0.16209126
   0.87982633  0.88888900  0.35660062
   0.66666667  0.89795133  0.29176404
   0.77777767  0.99093767  0.35660062
   0.67572900  0.78684033  0.35660062
   0.76871533  0.76871533  0.29176404
   0.89795133  0.66666667  0.29176404
   0.00000000  0.00000000  0.42324256
   0.00000000  0.00000000  0.45883370
   0.00000000  0.12500000  0.42324256
   0.00000000  0.12500000  0.45883370
   0.00000000  0.25000000  0.42324256
   0.00000000  0.25000000  0.45883370
   0.00000000  0.37500000  0.42324256
   0.00000000  0.37500000  0.45883370
   0.00000000  0.50000000  0.42324256
   0.00000000  0.50000000  0.45883370
   0.00000000  0.62500000  0.42324256
   0.00000000  0.62500000  0.45883370
   0.00000000  0.75000000  0.42324256
   0.00000000  0.75000000  0.45883370
   0.00000000  0.87500000  0.42324256
   0.00000000  0.87500000  0.45883370
   0.12500000  0.00000000  0.42324256
   0.12500000  0.00000000  0.45883370
   0.12500000  0.12500000  0.42324256
   0.12500000  0.12500000  0.45883370
   0.12500000  0.25000000  0.42324256
   0.12500000  0.25000000  0.45883370
   0.12500000  0.37500000  0.42324256
   0.12500000  0.37500000  0.45883370
   0.12500000  0.50000000  0.42324256
   0.12500000  0.50000000  0.45883370
   0.12500000  0.62500000  0.42324256
   0.12500000  0.62500000  0.45883370
   0.12500000  0.75000000  0.42324256
   0.12500000  0.75000000  0.45883370
   0.12500000  0.87500000  0.42324256
   0.12500000  0.87500000  0.45883370
   0.25000000  0.00000000  0.42324256
   0.25000000  0.00000000  0.45883370
   0.25000000  0.12500000  0.42324256
   0.25000000  0.12500000  0.45883370
   0.25000000  0.25000000  0.42324256
   0.25000000  0.25000000  0.45883370
   0.25000000  0.37500000  0.42324256
   0.25000000  0.37500000  0.45883370
   0.25000000  0.50000000  0.42324256
   0.25000000  0.50000000  0.45883370
   0.25000000  0.62500000  0.42324256
   0.25000000  0.62500000  0.45883370
   0.25000000  0.75000000  0.42324256
   0.25000000  0.75000000  0.45883370
   0.25000000  0.87500000  0.42324256
   0.25000000  0.87500000  0.45883370
   0.37500000  0.00000000  0.42324256
   0.37500000  0.00000000  0.45883370
   0.37500000  0.12500000  0.42324256
   0.37500000  0.12500000  0.45883370
   0.37500000  0.25000000  0.42324256
   0.37500000  0.25000000  0.45883370
   0.37500000  0.37500000  0.42324256
   0.37500000  0.37500000  0.45883370
   0.37500000  0.50000000  0.42324256
   0.37500000  0.50000000  0.45883370
   0.37500000  0.62500000  0.42324256
   0.37500000  0.62500000  0.45883370
   0.37500000  0.75000000  0.42324256
   0.37500000  0.75000000  0.45883370
   0.37500000  0.87500000  0.42324256
   0.37500000  0.87500000  0.45883370
   0.50000000  0.00000000  0.42324256
   0.50000000  0.00000000  0.45883370
   0.50000000  0.12500000  0.42324256
   0.50000000  0.12500000  0.45883370
   0.50000000  0.25000000  0.42324256
   0.50000000  0.25000000  0.45883370
   0.50000000  0.37500000  0.42324256
   0.50000000  0.37500000  0.45883370
   0.50000000  0.50000000  0.42324256
   0.50000000  0.50000000  0.45883370
   0.50000000  0.62500000  0.42324256
   0.50000000  0.62500000  0.45883370
   0.50000000  0.75000000  0.42324256
   0.50000000  0.75000000  0.45883370
   0.50000000  0.87500000  0.42324256
   0.50000000  0.87500000  0.45883370
   0.62500000  0.00000000  0.42324256
   0.62500000  0.00000000  0.45883370
   0.62500000  0.12500000  0.42324256
   0.62500000  0.12500000  0.45883370
   0.62500000  0.25000000  0.42324256
   0.62500000  0.25000000  0.45883370
   0.62500000  0.37500000  0.42324256
   0.62500000  0.37500000  0.45883370
   0.62500000  0.50000000  0.42324256
   0.62500000  0.50000000  0.45883370
   0.62500000  0.62500000  0.42324256
   0.62500000  0.62500000  0.45883370
   0.62500000  0.75000000  0.42324256
   0.62500000  0.75000000  0.45883370
   0.62500000  0.87500000  0.42324256
   0.62500000  0.87500000  0.45883370
   0.75000000  0.00000000  0.42324256
   0.75000000  0.00000000  0.45883370
   0.75000000  0.12500000  0.42324256
   0.75000000  0.12500000  0.45883370
   0.75000000  0.25000000  0.42324256
   0.75000000  0.25000000  0.45883370
   0.75000000  0.37500000  0.42324256
   0.75000000  0.37500000  0.45883370
   0.75000000  0.50000000  0.42324256
   0.75000000  0.50000000  0.45883370
   0.75000000  0.62500000  0.42324256
   0.75000000  0.62500000  0.45883370
   0.75000000  0.75000000  0.42324256
   0.75000000  0.75000000  0.45883370
   0.75000000  0.87500000  0.42324256
   0.75000000  0.87500000  0.45883370
   0.87500000  0.00000000  0.42324256
   0.87500000  0.00000000  0.45883370
   0.87500000  0.12500000  0.42324256
   0.87500000  0.12500000  0.45883370
   0.87500000  0.25000000  0.42324256
   0.87500000  0.25000000  0.45883370
   0.87500000  0.37500000  0.42324256
   0.87500000  0.37500000  0.45883370
   0.87500000  0.50000000  0.42324256
   0.87500000  0.50000000  0.45883370
   0.87500000  0.62500000  0.42324256
   0.87500000  0.62500000  0.45883370
   0.87500000  0.75000000  0.42324256
   0.87500000  0.75000000  0.45883370
   0.87500000  0.87500000  0.42324256
   0.87500000  0.87500000  0.45883370
Direct configuration=     2
  -0.00000000  0.00000000  0.05715670
   0.11110874  0.22222128  0.01111493
   0.11111215  0.22222262  0.12238096
   0.22222226  0.11111105  0.07112333
   0.22222795  0.11111356  0.18729785
  -0.00000000  0.00000000  0.13704140
  -0.00000000  0.00000000  0.25215072
   0.11111527  0.22222726  0.20191578
   0.11111740  0.22225715  0.31781977
   0.22223432  0.11111701  0.26678012
   0.21673153  0.10836669  0.36967849
  -0.00000000  0.00000000  0.33146426
  -0.00000039  0.33333091  0.05715709
   0.11110583  0.55555333  0.01111669
   0.11111067  0.55555864  0.12238267
   0.22222324  0.44444594  0.07112442
   0.22221868  0.44443896  0.18729789
  -0.00000010  0.33333625  0.13704314
   0.00000083  0.33333690  0.25214861
   0.11111617  0.55555919  0.20191703
   0.11112863  0.55555470  0.31782492
   0.22222314  0.44445166  0.26678259
   0.22009266  0.44023228  0.37386836
   0.00002279  0.33335194  0.33146086
  -0.00000018  0.66666514  0.05715692
   0.11111221  0.88889126  0.01111493
   0.11111014  0.88888785  0.12238096
   0.22222303  0.77777676  0.07112442
   0.22222061  0.77778132  0.18729789
  -0.00000041  0.66666663  0.13704282
  -0.00000214  0.66666520  0.25215018
   0.11111166  0.88888473  0.20191578
   0.11113941  0.88888260  0.31781977
   0.22222886  0.77777686  0.26678259
   0.22013995  0.77990734  0.37386836
  -0.00002409  0.66664487  0.33146189
   0.33333130  0.00000039  0.05715709
   0.44444378  0.22222090  0.01111510
   0.44444307  0.22222381  0.12238135
   0.55555725  0.11111335  0.07112363
   0.55555663  0.11111123  0.18729744
   0.33333635  0.00000010  0.13704314
   0.33333607 -0.00000083  0.25214861
   0.44444552  0.22222376  0.20191817
   0.44445709  0.22224238  0.31782107
   0.55556122  0.11111955  0.26678418
   0.55516033  0.11029355  0.37475955
   0.33332915 -0.00002279  0.33146086
   0.33333486  0.33333468  0.05715692
   0.44444667  0.55555283  0.01111669
   0.44444136  0.55555236  0.12238267
   0.55555643  0.44444275  0.07112363
   0.55555494  0.44444337  0.18729744
   0.33333337  0.33333296  0.13704282
   0.33333480  0.33333266  0.25215018
   0.44444081  0.55555731  0.20191703
   0.44444530  0.55557426  0.31782492
   0.55555866  0.44443878  0.26678418
   0.55513355  0.44483967  0.37475955
   0.33335513  0.33333104  0.33146189
   0.33333333  0.66666667  0.05715993
   0.44444717  0.88889417  0.01111669
   0.44444764  0.88888933  0.12238267
   0.55555406  0.77777697  0.07112442
   0.55556104  0.77777939  0.18729789
   0.33333333  0.66666667  0.13704228
   0.33333333  0.66666667  0.25215237
   0.44444269  0.88888383  0.20191703
   0.44442574  0.88887137  0.31782492
   0.55554834  0.77777114  0.26678259
   0.55976772  0.77986005  0.37386836
   0.33333333  0.66666667  0.33145765
   0.66666532  0.00000018  0.05715692
   0.77777910  0.22222321  0.01111510
   0.77777619  0.22221959  0.12238135
   0.88888895  0.11111088  0.07112333
   0.88888644  0.11111406  0.18729785
   0.66666704  0.00000041  0.13704282
   0.66666734  0.00000214  0.25215018
   0.77777624  0.22222210  0.20191817
   0.77775762  0.22221504  0.31782107
   0.88888299  0.11111697  0.26678012
   0.89163331  0.10836450  0.36967849
   0.66666896  0.00002409  0.33146189
   0.66666667  0.33333333  0.05715967
   0.77777679  0.55555622  0.01111510
   0.77778041  0.55555693  0.12238135
   0.88888665  0.44444357  0.07112363
   0.88888877  0.44444506  0.18729744
   0.66666667  0.33333333  0.13704214
   0.66666667  0.33333333  0.25215267
   0.77777790  0.55555448  0.20191817
   0.77778496  0.55554291  0.31782107
   0.88888045  0.44444134  0.26678418
   0.88970645  0.44486645  0.37475955
   0.66666667  0.33333333  0.33145948
   0.66666909  0.66666870  0.05715709
   0.77777872  0.88888779  0.01111493
   0.77777738  0.88888986  0.12238096
   0.88888912  0.77777774  0.07112333
   0.88888594  0.77777205  0.18729785
   0.66666375  0.66666365  0.13704314
   0.66666310  0.66666393  0.25214861
   0.77777274  0.88888834  0.20191578
   0.77774285  0.88886059  0.31781977
   0.88888303  0.77776568  0.26678012
   0.89163550  0.78326847  0.36967849
   0.66664806  0.66667085  0.33146086
   0.10222500  0.00024208  0.09728255
   0.22131760  0.00613108  0.03158717
  -0.00024208  0.10198292  0.09728255
   0.23136177  0.23111992  0.09728225
   0.32720322  0.21519066  0.03158758
   0.11814080  0.11200953  0.03158667
   0.32427526  0.11114289  0.22682925
   0.11106728  0.12016802  0.16203677
   0.22218883  0.21312830  0.22682730
   0.12020524  0.00905649  0.22682258
   0.21316735  0.32423996  0.16203651
   0.00910150  0.22226742  0.16203646
   0.21490974  0.22166523  0.35660773
   0.00003023  0.23124965  0.29164556
   0.11167572  0.32648497  0.35654687
   0.00676941  0.11842022  0.35657540
   0.10205038  0.10208962  0.29165480
   0.23121941 -0.00003023  0.29164556
   0.10222335  0.33356973  0.09727957
   0.22131753  0.33946319  0.03158636
  -0.00024193  0.43530904  0.09727932
   0.23135472  0.56444505  0.09727783
   0.32720855  0.54852971  0.03158626
   0.11813765  0.44534786  0.03158816
   0.32427679  0.44447866  0.22682949
   0.11106433  0.45350279  0.16203521
   0.22218517  0.54645908  0.22682737
   0.12020163  0.34238409  0.22682818
   0.21315977  0.65756513  0.16203596
   0.00909531  0.55558945  0.16203492
   0.21485869  0.55498039  0.35659563
   0.00004228  0.56460601  0.29165165
   0.11168429  0.65988483  0.35659356
   0.00675075  0.45167921  0.35656811
   0.10206436  0.43543195  0.29164511
   0.23124160  0.33329550  0.29165039
   0.10222091  0.66691431  0.09727897
   0.22132149  0.67279145  0.03158626
  -0.00024186  0.76863823  0.09728225
   0.23134639  0.89777665  0.09727957
   0.32721054  0.88186235  0.03158816
   0.11814599  0.77868247  0.03158636
   0.32427425  0.77781483  0.22682737
   0.11107227  0.78683265  0.16203651
   0.22218279  0.87979837  0.22682818
   0.12020221  0.67572321  0.22682949
   0.21316558  0.99089850  0.16203646
   0.00910041  0.88893272  0.16203677
   0.21480892  0.88832428  0.35654687
   0.00003924  0.89794962  0.29165480
   0.11165048  0.99323059  0.35657540
   0.00675516  0.78509026  0.35660773
   0.10205391  0.76875840  0.29165039
   0.23123171  0.66663473  0.29164469
   0.43555097  0.00024193  0.09727932
   0.55465245  0.00613572  0.03158762
   0.33308626  0.10198122  0.09728028
   0.56468686  0.23111282  0.09727782
   0.66052948  0.21519213  0.03158647
   0.45147617  0.11201379  0.03158761
   0.65761136  0.11114126  0.22682851
   0.44440909  0.12016561  0.16203334
   0.55552174  0.21311714  0.22682807
   0.45354319  0.00906236  0.22683117
   0.54649654  0.32423453  0.16203658
   0.34243215  0.22226606  0.16203618
   0.54828210  0.22173115  0.35658270
   0.33336105  0.23126443  0.29164512
   0.44495680  0.32654608  0.35654561
   0.34003645  0.11841591  0.35662054
   0.43539272  0.10210187  0.29164769
   0.56456373 -0.00004228  0.29165165
   0.43554851  0.33356961  0.09727899
   0.55466299  0.33947052  0.03158647
   0.33308569  0.43530660  0.09727897
   0.56469096  0.56444903  0.09727932
   0.66053795  0.54852383  0.03158761
   0.45148360  0.44534755  0.03158762
   0.65759573  0.44447826  0.22682807
   0.44441055  0.45350619  0.16203492
   0.55551950  0.54645681  0.22683117
   0.45353023  0.34238864  0.22682851
   0.54649721  0.65756188  0.16203521
   0.34243487  0.55559497  0.16203596
   0.54832079  0.55507187  0.35656811
   0.33336527  0.56459698  0.29164469
   0.44501961  0.65987863  0.35659563
   0.34011517  0.45179979  0.35659356
   0.43539399  0.43543627  0.29165165
   0.56456658  0.33329829  0.29164352
   0.43555495  0.66690968  0.09727783
   0.55465214  0.67278946  0.03158816
   0.33309032  0.76864528  0.09727783
   0.56469340  0.89777909  0.09727897
   0.66053681  0.88185401  0.03158636
   0.45147029  0.77867851  0.03158626
   0.65761591  0.77781721  0.22682818
   0.44440503  0.78684023  0.16203596
   0.55552134  0.87979779  0.22682949
   0.45354092  0.67572575  0.22682737
   0.54649381  0.99090469  0.16203492
   0.34243812  0.88893567  0.16203521
   0.54820021  0.88831571  0.35659356
   0.33336759  0.89793564  0.29164511
   0.44492813  0.99324925  0.35656811
   0.34012137  0.78514131  0.35659563
   0.43540302  0.76876829  0.29164469
   0.56456805  0.66663241  0.29164511
   0.76888008  0.00024186  0.09728225
   0.88799047  0.00613093  0.03158667
   0.66643039  0.10197890  0.09727899
   0.89801878  0.23110504  0.09728028
   0.99386892  0.21518618  0.03158717
   0.78480934  0.11201222  0.03158758
   0.99094351  0.11114842  0.22682258
   0.77773394  0.12016642  0.16203618
   0.88885711  0.21313204  0.22682925
   0.78687170  0.00906020  0.22682730
   0.87983439  0.32424381  0.16203334
   0.67576547  0.22226235  0.16203658
   0.88158409  0.22162088  0.35662054
   0.66670171  0.23126829  0.29164352
   0.77826885  0.32655128  0.35658270
   0.67345392  0.11841105  0.35654561
   0.76873557  0.10209663  0.29164512
   0.89791038 -0.00003924  0.29165480
   0.76888718  0.33357404  0.09727782
   0.88798621  0.33946205  0.03158761
   0.66642596  0.43531314  0.09727782
   0.89802110  0.56445149  0.09727899
   0.99386428  0.54851640  0.03158762
   0.78480787  0.44533701  0.03158647
   0.99093764  0.44448050  0.22683117
   0.77773765  0.45350346  0.16203658
   0.88885874  0.54646977  0.22682851
   0.78688286  0.34240427  0.22682807
   0.87983358  0.65756785  0.16203618
   0.67575619  0.55559091  0.16203334
   0.88158895  0.55504320  0.35654561
   0.66670915  0.56460728  0.29164769
   0.77837912  0.65996355  0.35662054
   0.67344872  0.45171790  0.35658270
   0.76873171  0.43543342  0.29164352
   0.89789813  0.33329085  0.29164769
   0.76889496  0.66691374  0.09728028
   0.88798778  0.67279678  0.03158758
   0.66643027  0.76865361  0.09727957
   0.89801708  0.89777500  0.09728255
   0.99386907  0.88185920  0.03158667
   0.78481382  0.77868240  0.03158717
   0.99093980  0.77781117  0.22682730
   0.77773258  0.78683442  0.16203646
   0.88885158  0.87979476  0.22682258
   0.78686796  0.67572474  0.22682925
   0.87983198  0.99089959  0.16203677
   0.67576004  0.88892773  0.16203651
   0.88157978  0.88834952  0.35657540
   0.66670450  0.89794609  0.29165039
   0.77833477  0.99324484  0.35660773
   0.67351503  0.78519108  0.35654687
   0.76875035  0.76878059  0.29164556
   0.89790337  0.66663895  0.29164512
  -0.00000000  0.00000000  0.42202246
  -0.00000000  0.00000000  0.46009630
   0.00349191  0.12549660  0.42238065
   0.00016405  0.12505267  0.46062163
   0.00184961  0.25221754  0.42198533
   0.00020052  0.25017357  0.46019694
   0.00046436  0.37482832  0.42211939
   0.00007894  0.37489271  0.46017046
   0.00433273  0.50202225  0.42222337
   0.00007768  0.50017236  0.46060198
   0.00046065  0.62577453  0.42205853
   0.00009412  0.62514060  0.46013803
   0.00184348  0.74977157  0.42231789
   0.00022725  0.74991249  0.46039942
   0.00343703  0.87782508  0.42193036
   0.00010278  0.87516406  0.46038382
   0.12200469 -0.00349191  0.42238065
   0.12488862 -0.00016405  0.46062163
   0.12217492  0.12561195  0.42193036
   0.12483594  0.12493872  0.46038382
   0.12469386  0.24945549  0.42205093
   0.12493681  0.24985838  0.46014376
   0.12025073  0.37147046  0.42239976
   0.12496846  0.37508049  0.46073614
   0.12382446  0.50093796  0.42210785
   0.12481132  0.50002349  0.46023549
   0.12370412  0.62299199  0.42224657
   0.12485364  0.62470207  0.46033521
   0.12036105  0.74860992  0.42211903
   0.12494738  0.75009102  0.46060084
   0.12476163  0.87530614  0.42205093
   0.12492156  0.87506319  0.46014376
   0.25036793 -0.00184961  0.42198533
   0.24997305 -0.00020052  0.46019694
   0.25767206  0.12883313  0.42980791
   0.25013284  0.12508735  0.46120150
   0.25022843  0.25207192  0.42231789
   0.25008751  0.25031476  0.46039942
   0.25139008  0.37175112  0.42211903
   0.24990898  0.37485636  0.46060084
   0.25433336  0.50874137  0.42545240
   0.25013984  0.50011438  0.46102741
   0.24993635  0.62478302  0.42213309
   0.25001057  0.62507942  0.46018911
   0.25440800  0.74566664  0.42545240
   0.24997454  0.74986016  0.46102741
   0.25121973  0.87974927  0.42239976
   0.25011203  0.87503154  0.46073614
   0.37436396 -0.00046436  0.42211939
   0.37481378 -0.00007894  0.46017046
   0.37604138  0.12527441  0.42226627
   0.37530361  0.12504566  0.46031898
   0.37637574  0.25104536  0.42206455
   0.37514092  0.25013384  0.46016982
   0.37422547  0.37468612  0.42205853
   0.37485940  0.37495352  0.46013803
   0.37700801  0.50071213  0.42224657
   0.37529793  0.50015157  0.46033521
   0.37521698  0.62515334  0.42213309
   0.37492058  0.62493115  0.46018911
   0.37484666  0.75006365  0.42213309
   0.37506885  0.74998943  0.46018911
   0.37711350  0.87617554  0.42210785
   0.37521217  0.87518868  0.46023549
   0.49768952 -0.00433273  0.42222337
   0.50009468 -0.00007768  0.46060198
   0.49466181  0.12645260  0.42341856
   0.49984882  0.12492318  0.46086637
   0.49965903  0.24972460  0.42209230
   0.49993373  0.24998370  0.46018031
   0.49445862  0.36807755  0.42362854
   0.50007991  0.37504425  0.46094116
   0.49797775  0.50231048  0.42222337
   0.49982764  0.49990532  0.46060198
   0.49906204  0.62288650  0.42210785
   0.49997651  0.62478783  0.46023549
   0.49125863  0.74559200  0.42545240
   0.49988562  0.75002546  0.46102741
   0.49928787  0.87629588  0.42224657
   0.49984843  0.87514636  0.46033521
   0.62531388 -0.00046065  0.42205853
   0.62504648 -0.00009412  0.46013803
   0.63192245  0.12638107  0.42362854
   0.62495575  0.12503566  0.46094116
   0.62617345  0.25264172  0.42213275
   0.62518048  0.25018767  0.46033456
   0.62646827  0.37382655  0.42213275
   0.62500719  0.37481952  0.46033456
   0.63179079  0.50533819  0.42341856
   0.62507436  0.50015118  0.46086637
   0.62517168  0.62563604  0.42211939
   0.62510729  0.62518622  0.46017046
   0.62852954  0.74878027  0.42239976
   0.62491951  0.74988797  0.46073614
   0.62824888  0.87963895  0.42211903
   0.62514364  0.87505262  0.46060084
   0.74792808 -0.00184348  0.42231789
   0.74968524 -0.00022725  0.46039942
   0.74895464  0.12533038  0.42206455
   0.74986616  0.12500708  0.46016982
   0.75027540  0.24993443  0.42209230
   0.75001630  0.24995002  0.46018031
   0.74735828  0.37353173  0.42213275
   0.74981233  0.37499281  0.46033456
   0.75006557  0.50034097  0.42209230
   0.75004998  0.50006627  0.46018031
   0.74923303  0.62395862  0.42226627
   0.74974206  0.62469639  0.46031898
   0.74778246  0.74963207  0.42198533
   0.74982643  0.75002695  0.46019694
   0.75054451  0.87523837  0.42205093
   0.75014162  0.87507844  0.46014376
   0.87438805 -0.00343703  0.42193036
   0.87506128 -0.00010278  0.46038382