 272 272   0   0
  0.2058654E+02  0.1441508E-08  0.1441508E-08  0.3111625E-08  0.2000000E-15
   1.0000000000000000E-004
  CAR 
 NiAl                                    
      9.94472880    -26.59220052  301     -0.77369659      1.00000000
    -26.592  0.0000E+00  0.0000E+00
    -26.470  0.0000E+00  0.0000E+00
    -26.349  0.0000E+00  0.0000E+00
    -26.227  0.0000E+00  0.0000E+00
    -26.105  0.0000E+00  0.0000E+00
    -25.983  0.0000E+00  0.0000E+00
    -25.861  0.0000E+00  0.0000E+00
    -25.740  0.0000E+00  0.0000E+00
    -25.618  0.0000E+00  0.0000E+00
    -25.496  0.0000E+00  0.0000E+00
    -25.374  0.0000E+00  0.0000E+00
    -25.253  0.0000E+00  0.0000E+00
    -25.131  0.3525E-08  0.4293E-09
    -25.009  0.5802E-02  0.7066E-03
    -24.887  0.3615E+00  0.4473E-01
    -24.765  0.4329E-01  0.5000E-01
    -24.644  0.5450E-06  0.5000E-01
    -24.522  0.0000E+00  0.5000E-01
    -24.400  0.0000E+00  0.5000E-01
    -24.278  0.0000E+00  0.5000E-01
    -24.156  0.0000E+00  0.5000E-01
    -24.035  0.0000E+00  0.5000E-01
    -23.913  0.0000E+00  0.5000E-01
    -23.791  0.0000E+00  0.5000E-01
    -23.669  0.0000E+00  0.5000E-01
    -23.547  0.0000E+00  0.5000E-01
    -23.426  0.0000E+00  0.5000E-01
    -23.304  0.0000E+00  0.5000E-01
    -23.182  0.0000E+00  0.5000E-01
    -23.060  0.0000E+00  0.5000E-01
    -22.939  0.0000E+00  0.5000E-01
    -22.817  0.0000E+00  0.5000E-01
    -22.695  0.0000E+00  0.5000E-01
    -22.573  0.0000E+00  0.5000E-01
    -22.451  0.0000E+00  0.5000E-01
    -22.330  0.0000E+00  0.5000E-01
    -22.208  0.0000E+00  0.5000E-01
    -22.086  0.0000E+00  0.5000E-01
    -21.964  0.0000E+00  0.5000E-01
    -21.842  0.0000E+00  0.5000E-01
    -21.721  0.0000E+00  0.5000E-01
    -21.599  0.0000E+00  0.5000E-01
    -21.477  0.0000E+00  0.5000E-01
    -21.355  0.0000E+00  0.5000E-01
    -21.233  0.0000E+00  0.5000E-01
    -21.112  0.0000E+00  0.5000E-01
    -20.990  0.0000E+00  0.5000E-01
    -20.868  0.0000E+00  0.5000E-01
    -20.746  0.2867E-09  0.5000E-01
    -20.625  0.8790E-03  0.5011E-01
    -20.503  0.9263E-01  0.6139E-01
    -20.381  0.5339E+00  0.1264E+00
    -20.259  0.1064E+00  0.1394E+00
    -20.137  0.6952E+00  0.2240E+00
    -20.016  0.1167E+01  0.3661E+00
    -19.894  0.1588E+00  0.3855E+00
    -19.772  0.1301E+01  0.5439E+00
    -19.650  0.1811E+01  0.7645E+00
    -19.528  0.7858E+00  0.8602E+00
    -19.407  0.2045E+01  0.1109E+01
    -19.285  0.1410E+01  0.1281E+01
    -19.163  0.1733E+01  0.1492E+01
    -19.041  0.2318E+01  0.1774E+01
    -18.919  0.9388E+00  0.1889E+01
    -18.798  0.2068E+01  0.2141E+01
    -18.676  0.2191E+01  0.2407E+01
    -18.554  0.4217E+01  0.2921E+01
    -18.432  0.4035E+01  0.3412E+01
    -18.310  0.4908E+01  0.4010E+01
    -18.189  0.5590E+01  0.4691E+01
    -18.067  0.6949E+01  0.5537E+01
    -17.945  0.6071E+01  0.6277E+01
    -17.823  0.5244E+01  0.6915E+01
    -17.702  0.8777E+01  0.7984E+01
    -17.580  0.1360E+01  0.8150E+01
    -17.458  0.2140E-03  0.8150E+01
    -17.336  0.1072E-11  0.8150E+01
    -17.214  0.0000E+00  0.8150E+01
    -17.093  0.0000E+00  0.8150E+01
    -16.971  0.0000E+00  0.8150E+01
    -16.849  0.0000E+00  0.8150E+01
    -16.727  0.0000E+00  0.8150E+01
    -16.605  0.0000E+00  0.8150E+01
    -16.484  0.0000E+00  0.8150E+01
    -16.362  0.0000E+00  0.8150E+01
    -16.240  0.0000E+00  0.8150E+01
    -16.118  0.0000E+00  0.8150E+01
    -15.996  0.0000E+00  0.8150E+01
    -15.875  0.0000E+00  0.8150E+01
    -15.753  0.0000E+00  0.8150E+01
    -15.631  0.0000E+00  0.8150E+01
    -15.509  0.3483E-09  0.8150E+01
    -15.388  0.2030E-02  0.8150E+01
    -15.266  0.3291E+00  0.8190E+01
    -15.144  0.7945E-01  0.8200E+01
    -15.022  0.3355E-05  0.8200E+01
    -14.900  0.1823E-14  0.8200E+01
    -14.779  0.0000E+00  0.8200E+01
    -14.657  0.0000E+00  0.8200E+01
    -14.535  0.0000E+00  0.8200E+01
    -14.413  0.0000E+00  0.8200E+01
    -14.291  0.0000E+00  0.8200E+01
    -14.170  0.0000E+00  0.8200E+01
    -14.048  0.0000E+00  0.8200E+01
    -13.926  0.0000E+00  0.8200E+01
    -13.804  0.0000E+00  0.8200E+01
    -13.682  0.0000E+00  0.8200E+01
    -13.561  0.0000E+00  0.8200E+01
    -13.439  0.0000E+00  0.8200E+01
    -13.317  0.0000E+00  0.8200E+01
    -13.195  0.0000E+00  0.8200E+01
    -13.074  0.0000E+00  0.8200E+01
    -12.952  0.0000E+00  0.8200E+01
    -12.830  0.0000E+00  0.8200E+01
    -12.708  0.0000E+00  0.8200E+01
    -12.586  0.0000E+00  0.8200E+01
    -12.465  0.0000E+00  0.8200E+01
    -12.343  0.0000E+00  0.8200E+01
    -12.221  0.0000E+00  0.8200E+01
    -12.099  0.0000E+00  0.8200E+01
    -11.977  0.0000E+00  0.8200E+01
    -11.856  0.0000E+00  0.8200E+01
    -11.734  0.0000E+00  0.8200E+01
    -11.612  0.0000E+00  0.8200E+01
    -11.490  0.0000E+00  0.8200E+01
    -11.368  0.0000E+00  0.8200E+01
    -11.247  0.0000E+00  0.8200E+01
    -11.125  0.0000E+00  0.8200E+01
    -11.003  0.0000E+00  0.8200E+01
    -10.881  0.0000E+00  0.8200E+01
    -10.760  0.0000E+00  0.8200E+01
    -10.638  0.0000E+00  0.8200E+01
    -10.516  0.0000E+00  0.8200E+01
    -10.394  0.0000E+00  0.8200E+01
    -10.272  0.0000E+00  0.8200E+01
    -10.151  0.0000E+00  0.8200E+01
    -10.029  0.0000E+00  0.8200E+01
     -9.907  0.0000E+00  0.8200E+01
     -9.785  0.0000E+00  0.8200E+01
     -9.663  0.0000E+00  0.8200E+01
     -9.542  0.0000E+00  0.8200E+01
     -9.420  0.0000E+00  0.8200E+01
     -9.298  0.0000E+00  0.8200E+01
     -9.176  0.0000E+00  0.8200E+01
     -9.054  0.0000E+00  0.8200E+01
     -8.933  0.0000E+00  0.8200E+01
     -8.811  0.0000E+00  0.8200E+01
     -8.689  0.0000E+00  0.8200E+01
     -8.567  0.0000E+00  0.8200E+01
     -8.446  0.2963E-15  0.8200E+01
     -8.324  0.1040E-05  0.8200E+01
     -8.202  0.5201E-01  0.8206E+01
     -8.080  0.3541E+00  0.8249E+01
     -7.958  0.1256E+00  0.8265E+01
     -7.837  0.1119E+01  0.8401E+01
     -7.715  0.1202E+01  0.8547E+01
     -7.593  0.2172E+01  0.8812E+01
     -7.471  0.2372E+01  0.9101E+01
     -7.349  0.1822E+01  0.9323E+01
     -7.228  0.3743E+01  0.9779E+01
     -7.106  0.3573E+01  0.1021E+02
     -6.984  0.2945E+01  0.1057E+02
     -6.862  0.2567E+01  0.1088E+02
     -6.740  0.3023E+01  0.1125E+02
     -6.619  0.2424E+01  0.1155E+02
     -6.497  0.2728E+01  0.1188E+02
     -6.375  0.3267E+01  0.1228E+02
     -6.253  0.3228E+01  0.1267E+02
     -6.132  0.2017E+01  0.1292E+02
     -6.010  0.2522E+01  0.1322E+02
     -5.888  0.2156E+01  0.1349E+02
     -5.766  0.2841E+01  0.1383E+02
     -5.644  0.3164E+01  0.1422E+02
     -5.523  0.2934E+01  0.1458E+02
     -5.401  0.3737E+01  0.1503E+02
     -5.279  0.3994E+01  0.1552E+02
     -5.157  0.3135E+01  0.1590E+02
     -5.035  0.2838E+01  0.1624E+02
     -4.914  0.1643E+01  0.1644E+02
     -4.792  0.2145E+01  0.1671E+02
     -4.670  0.3315E+01  0.1711E+02
     -4.548  0.3354E+01  0.1752E+02
     -4.426  0.3129E+01  0.1790E+02
     -4.305  0.2806E+01  0.1824E+02
     -4.183  0.3302E+01  0.1864E+02
     -4.061  0.3167E+01  0.1903E+02
     -3.939  0.3639E+01  0.1947E+02
     -3.818  0.3636E+01  0.1992E+02
     -3.696  0.4329E+01  0.2044E+02
     -3.574  0.5195E+01  0.2108E+02
     -3.452  0.4588E+01  0.2163E+02
     -3.330  0.4684E+01  0.2220E+02
     -3.209  0.4429E+01  0.2274E+02
     -3.087  0.4909E+01  0.2334E+02
     -2.965  0.6071E+01  0.2408E+02
     -2.843  0.6512E+01  0.2487E+02
     -2.721  0.6525E+01  0.2567E+02
     -2.600  0.6317E+01  0.2644E+02
     -2.478  0.5733E+01  0.2714E+02
     -2.356  0.5370E+01  0.2779E+02
     -2.234  0.6234E+01  0.2855E+02
     -2.112  0.5128E+01  0.2917E+02
     -1.991  0.4829E+01  0.2976E+02
     -1.869  0.5238E+01  0.3040E+02
     -1.747  0.4046E+01  0.3089E+02
     -1.625  0.5103E+01  0.3151E+02
     -1.504  0.6081E+01  0.3225E+02
     -1.382  0.3213E+01  0.3265E+02
     -1.260  0.3319E-01  0.3265E+02
     -1.138  0.8174E-07  0.3265E+02
     -1.016  0.2862E-08  0.3265E+02
     -0.895  0.5295E-02  0.3265E+02
     -0.773  0.4095E+00  0.3270E+02
     -0.651  0.4017E+00  0.3275E+02
     -0.529  0.4628E-02  0.3275E+02
     -0.407  0.2122E-08  0.3275E+02
     -0.286  0.0000E+00  0.3275E+02
     -0.164  0.0000E+00  0.3275E+02
     -0.042  0.0000E+00  0.3275E+02
      0.080  0.0000E+00  0.3275E+02
      0.202  0.0000E+00  0.3275E+02
      0.323  0.0000E+00  0.3275E+02
      0.445  0.0000E+00  0.3275E+02
      0.567  0.0000E+00  0.3275E+02
      0.689  0.0000E+00  0.3275E+02
      0.810  0.0000E+00  0.3275E+02
      0.932  0.0000E+00  0.3275E+02
      1.054  0.0000E+00  0.3275E+02
      1.176  0.0000E+00  0.3275E+02
      1.298  0.0000E+00  0.3275E+02
      1.419  0.0000E+00  0.3275E+02
      1.541  0.0000E+00  0.3275E+02
      1.663  0.0000E+00  0.3275E+02
      1.785  0.0000E+00  0.3275E+02
      1.907  0.0000E+00  0.3275E+02
      2.028  0.0000E+00  0.3275E+02
      2.150  0.0000E+00  0.3275E+02
      2.272  0.0000E+00  0.3275E+02
      2.394  0.0000E+00  0.3275E+02
      2.516  0.0000E+00  0.3275E+02
      2.637  0.0000E+00  0.3275E+02
      2.759  0.0000E+00  0.3275E+02
      2.881  0.0000E+00  0.3275E+02
      3.003  0.0000E+00  0.3275E+02
      3.125  0.4756E-12  0.3275E+02
      3.246  0.3820E-04  0.3275E+02
      3.368  0.5423E-01  0.3276E+02
      3.490  0.7717E-01  0.3277E+02
      3.612  0.2181E+00  0.3279E+02
      3.733  0.4503E+00  0.3285E+02
      3.855  0.6191E+00  0.3292E+02
      3.977  0.1376E+00  0.3294E+02
      4.099  0.4351E+00  0.3299E+02
      4.221  0.1055E+01  0.3312E+02
      4.342  0.5776E+00  0.3319E+02
      4.464  0.1297E+01  0.3335E+02
      4.586  0.6553E+00  0.3343E+02
      4.708  0.1297E+01  0.3359E+02
      4.830  0.2083E+00  0.3361E+02
      4.951  0.5811E-01  0.3362E+02
      5.073  0.6736E+00  0.3370E+02
      5.195  0.4711E+00  0.3376E+02
      5.317  0.5015E+00  0.3382E+02
      5.439  0.6486E+00  0.3390E+02
      5.560  0.3802E+00  0.3395E+02
      5.682  0.3876E+00  0.3399E+02
      5.804  0.4799E+00  0.3405E+02
      5.926  0.1769E+01  0.3427E+02
      6.047  0.7863E+00  0.3436E+02
      6.169  0.1610E+01  0.3456E+02
      6.291  0.8977E+00  0.3467E+02
      6.413  0.1966E+01  0.3491E+02
      6.535  0.3556E+01  0.3534E+02
      6.656  0.2311E+01  0.3562E+02
      6.778  0.1198E+01  0.3577E+02
      6.900  0.1391E+01  0.3594E+02
      7.022  0.1581E+01  0.3613E+02
      7.144  0.1845E+01  0.3635E+02
      7.265  0.1987E+01  0.3660E+02
      7.387  0.1682E+01  0.3680E+02
      7.509  0.9719E+00  0.3692E+02
      7.631  0.2416E+01  0.3721E+02
      7.753  0.3807E+01  0.3768E+02
      7.874  0.3252E+01  0.3807E+02
      7.996  0.3525E+01  0.3850E+02
      8.118  0.3814E+01  0.3897E+02
      8.240  0.3255E+01  0.3936E+02
      8.361  0.1523E+01  0.3955E+02
      8.483  0.8030E-02  0.3955E+02
      8.605  0.2872E-08  0.3955E+02
      8.727  0.0000E+00  0.3955E+02
      8.849  0.0000E+00  0.3955E+02
      8.970  0.0000E+00  0.3955E+02
      9.092  0.0000E+00  0.3955E+02
      9.214  0.0000E+00  0.3955E+02
      9.336  0.0000E+00  0.3955E+02
      9.458  0.0000E+00  0.3955E+02
      9.579  0.0000E+00  0.3955E+02
      9.701  0.0000E+00  0.3955E+02
      9.823  0.0000E+00  0.3955E+02
      9.945  0.0000E+00  0.3955E+02
