    4    4    1    1
  0.7621563E+03  0.1450000E-08  0.1450000E-08  0.1450000E-08  0.5000000E-15
   1.0000000000000000E-004
  CAR 
 NiAl                                    
     24      1     16
 
  0.1262379E-14  0.1262379E-14  0.1262379E-14  0.1000000E+01
    1      -50.074668   1.000000
    2      -33.606024   1.000000
    3      -32.272180   1.000000
    4      -25.129143   1.000000
    5      -25.129143   1.000000
    6      -17.096963   1.000000
    7      -16.489999   1.000000
    8      -11.713413   1.000000
    9      -11.713413   1.000000
   10       -8.557044   1.000000
   11       -8.557044   1.000000
   12       -2.176772   0.375963
   13       -2.176772   0.375963
   14       -2.163887   0.248074
   15       -0.784336   0.000000
   16       -0.170496   0.000000
