/store/Terry_project/NiAlO_EDIP_fitting_DFT/O4-2/O4_2_iter_last_lmp.data (written by ASE) 

4 	 atoms 
1  atom types
0.0                    14.5  xlo xhi
0.0                    14.5  ylo yhi
0.0                    14.5  zlo zhi


Atoms 

     1   1                       0                       0                       0
     2   1              1.19999999                       0                       0
     3   1      1.9999999350000002                       0                       0
     4   1      3.2000000700000002                       0                       0
