       N       E                     dE             d eps       ncg     rms          rms(c)
DAV:   1     0.255710884702E+03    0.25571E+03   -0.51832E+03    48   0.578E+02
DAV:   2     0.102565534862E+03   -0.15315E+03   -0.15201E+03    48   0.210E+02
DAV:   3     0.316499258950E+02   -0.70916E+02   -0.70803E+02    56   0.100E+02
DAV:   4     0.143706337584E+02   -0.17279E+02   -0.17279E+02    32   0.465E+01
DAV:   5     0.138057875769E+02   -0.56485E+00   -0.56437E+00    48   0.145E+01    0.151E+02
DAV:   6     0.134666792191E+02   -0.33911E+00   -0.64143E+01    56   0.383E+01    0.759E+01
DAV:   7     0.125131093232E+02   -0.95357E+00   -0.57916E+01    40   0.811E+01    0.389E+01
DAV:   8     0.163769334256E+02    0.38638E+01   -0.24294E+01    56   0.380E+01    0.146E+01
DAV:   9     0.164007796328E+02    0.23846E-01   -0.79825E-01    48   0.709E+00    0.861E+00
DAV:  10     0.160234138713E+02   -0.37737E+00   -0.36773E+00    56   0.588E+00    0.364E+01
DAV:  11     0.165558691946E+02    0.53246E+00   -0.19973E+00    48   0.444E+00    0.103E+01
DAV:  12     0.164179867192E+02   -0.13788E+00   -0.15871E-02    48   0.167E+00    0.995E+00
DAV:  13     0.164592022450E+02    0.41216E-01   -0.44858E-03    40   0.701E-01    0.401E+00
DAV:  14     0.164469610339E+02   -0.12241E-01   -0.19960E-03    40   0.446E-01    0.197E+00
DAV:  15     0.164306918023E+02   -0.16269E-01   -0.16781E-03    32   0.423E-01    0.647E+00
DAV:  16     0.164440732450E+02    0.13381E-01   -0.12915E-03    40   0.318E-01    0.118E+00
DAV:  17     0.164362937460E+02   -0.77795E-02   -0.33028E-04    48   0.139E-01    0.294E-01
DAV:  18     0.164323250128E+02   -0.39687E-02   -0.39527E-04    48   0.176E-01    0.292E+00
DAV:  19     0.164357338866E+02    0.34089E-02   -0.35661E-04    40   0.152E-01    0.400E-01
DAV:  20     0.164326416584E+02   -0.30922E-02   -0.11235E-04    40   0.861E-02    0.609E-02
DAV:  21     0.164318967281E+02   -0.74493E-03   -0.74431E-05    32   0.471E-02    0.509E-01
DAV:  22     0.164318578592E+02   -0.38869E-04   -0.64068E-05    48   0.388E-02    0.112E-01
DAV:  23     0.164316367867E+02   -0.22107E-03   -0.26049E-05    32   0.269E-02    0.735E-02
DAV:  24     0.164315677312E+02   -0.69056E-04   -0.18332E-05    48   0.112E-02    0.132E-01
DAV:  25     0.164315282925E+02   -0.39439E-04   -0.60475E-06    24   0.733E-03    0.346E-02
DAV:  26     0.164315015909E+02   -0.26702E-04   -0.69490E-06    40   0.608E-03    0.489E-02
DAV:  27     0.164314647615E+02   -0.36829E-04   -0.83479E-06    24   0.663E-03    0.571E-02
DAV:  28     0.164314630082E+02   -0.17532E-05   -0.17588E-06    24   0.522E-03    0.550E-02
DAV:  29     0.164314573982E+02   -0.56100E-05   -0.90082E-07    24   0.339E-03    0.197E-02
DAV:  30     0.164314584373E+02    0.10391E-05   -0.23257E-07    40   0.290E-03    0.131E-02
DAV:  31     0.164314654250E+02    0.69877E-05   -0.16535E-08    40   0.123E-03    0.147E-03
DAV:  32     0.164314614624E+02   -0.39626E-05   -0.12594E-08    40   0.693E-04    0.594E-04
DAV:  33     0.164314601610E+02   -0.13015E-05   -0.10001E-07    24   0.897E-04    0.310E-03
DAV:  34     0.164314609815E+02    0.82057E-06   -0.10780E-08    40   0.335E-04    0.491E-04
DAV:  35     0.164314595622E+02   -0.14194E-05   -0.16067E-09    40   0.226E-04    0.348E-04
DAV:  36     0.164314593923E+02   -0.16991E-06   -0.17110E-09    40   0.129E-04    0.629E-04
DAV:  37     0.164314591176E+02   -0.27469E-06   -0.27375E-10    40   0.918E-05    0.161E-04
DAV:  38     0.164314592495E+02    0.13191E-06   -0.17105E-10    40   0.418E-05    0.243E-04
DAV:  39     0.164314592423E+02   -0.72182E-08   -0.11110E-10    40   0.347E-05
   1 F= 0.16395624E+02 E0= 0.16433647E+02  d E =-.760475E-01
