NiAl                                    
            1
    14.500000    0.000000    0.000000
     0.000000   14.500000    0.000000
     0.000000    0.000000   14.500000
   O 
     4
Direct configuration=     1
   0.00000000  0.00000000  0.00000000
   0.08275862  0.00000000  0.00000000
   0.13793103  0.00000000  0.00000000
   0.22068966  0.00000000  0.00000000
