 250 250   0   0
  0.1219450E+02  0.1450000E-08  0.1450000E-08  0.1450000E-08  0.5000000E-15
   1.0000000000000000E-004
  CAR 
 NiAl                                    
     11.69467744     -4.98917747  301      6.80307257      1.00000000
     -4.989  0.0000E+00  0.0000E+00
     -4.934  0.0000E+00  0.0000E+00
     -4.878  0.0000E+00  0.0000E+00
     -4.822  0.0000E+00  0.0000E+00
     -4.767  0.0000E+00  0.0000E+00
     -4.711  0.0000E+00  0.0000E+00
     -4.656  0.0000E+00  0.0000E+00
     -4.600  0.0000E+00  0.0000E+00
     -4.544  0.0000E+00  0.0000E+00
     -4.489  0.6820E-12  0.3793E-13
     -4.433  0.2396E-07  0.1332E-08
     -4.377  0.7572E-04  0.4212E-05
     -4.322  0.2252E-01  0.1257E-02
     -4.266  0.6895E+00  0.3960E-01
     -4.211  0.2508E+01  0.1791E+00
     -4.155  0.1241E+01  0.2481E+00
     -4.099  0.2160E+01  0.3683E+00
     -4.044  0.1308E+02  0.1095E+01
     -3.988  0.1067E+02  0.1689E+01
     -3.933  0.3038E+01  0.1858E+01
     -3.877  0.2025E+02  0.2984E+01
     -3.821  0.2697E+02  0.4484E+01
     -3.766  0.5250E+01  0.4776E+01
     -3.710  0.9637E+01  0.5312E+01
     -3.654  0.2009E+02  0.6429E+01
     -3.599  0.5743E+01  0.6749E+01
     -3.543  0.4735E+01  0.7012E+01
     -3.488  0.1520E+02  0.7857E+01
     -3.432  0.6970E+01  0.8245E+01
     -3.376  0.1187E+02  0.8905E+01
     -3.321  0.5661E+02  0.1205E+02
     -3.265  0.3663E+02  0.1409E+02
     -3.210  0.1012E+02  0.1465E+02
     -3.154  0.5002E+02  0.1743E+02
     -3.098  0.4529E+02  0.1995E+02
     -3.043  0.5269E+01  0.2025E+02
     -2.987  0.6835E-01  0.2025E+02
     -2.932  0.1142E-01  0.2025E+02
     -2.876  0.1356E+01  0.2033E+02
     -2.820  0.1760E+02  0.2130E+02
     -2.765  0.2870E+02  0.2290E+02
     -2.709  0.8283E+01  0.2336E+02
     -2.653  0.3617E+02  0.2537E+02
     -2.598  0.7518E+02  0.2955E+02
     -2.542  0.2172E+02  0.3076E+02
     -2.487  0.2200E+02  0.3198E+02
     -2.431  0.6130E+02  0.3539E+02
     -2.375  0.2400E+02  0.3673E+02
     -2.320  0.1989E+02  0.3783E+02
     -2.264  0.6094E+02  0.4122E+02
     -2.209  0.2635E+02  0.4269E+02
     -2.153  0.8291E+01  0.4315E+02
     -2.097  0.2043E+02  0.4429E+02
     -2.042  0.8514E+01  0.4476E+02
     -1.986  0.1716E+02  0.4571E+02
     -1.930  0.6030E+02  0.4907E+02
     -1.875  0.2979E+02  0.5072E+02
     -1.819  0.3683E+02  0.5277E+02
     -1.764  0.1212E+03  0.5951E+02
     -1.708  0.5512E+02  0.6258E+02
     -1.652  0.3089E+01  0.6275E+02
     -1.597  0.1847E-01  0.6275E+02
     -1.541  0.4491E-01  0.6275E+02
     -1.486  0.2291E+01  0.6288E+02
     -1.430  0.1341E+02  0.6363E+02
     -1.374  0.1213E+02  0.6430E+02
     -1.319  0.4123E+02  0.6659E+02
     -1.263  0.1178E+03  0.7314E+02
     -1.208  0.5421E+02  0.7616E+02
     -1.152  0.3675E+02  0.7820E+02
     -1.096  0.8994E+02  0.8320E+02
     -1.041  0.3923E+02  0.8539E+02
     -0.985  0.4359E+02  0.8781E+02
     -0.929  0.5298E+02  0.9076E+02
     -0.874  0.1177E+02  0.9141E+02
     -0.818  0.3703E+02  0.9347E+02
     -0.763  0.5662E+02  0.9662E+02
     -0.707  0.2543E+02  0.9803E+02
     -0.651  0.9990E+02  0.1036E+03
     -0.596  0.9274E+02  0.1087E+03
     -0.540  0.3990E+02  0.1110E+03
     -0.485  0.6022E+02  0.1143E+03
     -0.429  0.1629E+02  0.1152E+03
     -0.373  0.5244E+00  0.1152E+03
     -0.318  0.1449E+00  0.1153E+03
     -0.262  0.8067E+01  0.1157E+03
     -0.206  0.5180E+02  0.1186E+03
     -0.151  0.4516E+02  0.1211E+03
     -0.095  0.3704E+02  0.1232E+03
     -0.040  0.6900E+02  0.1270E+03
      0.016  0.5109E+02  0.1298E+03
      0.072  0.1393E+03  0.1376E+03
      0.127  0.1151E+03  0.1440E+03
      0.183  0.5393E+02  0.1470E+03
      0.238  0.3546E+02  0.1490E+03
      0.294  0.3546E+02  0.1509E+03
      0.350  0.3348E+02  0.1528E+03
      0.405  0.4621E+02  0.1554E+03
      0.461  0.1553E+03  0.1640E+03
      0.516  0.1809E+03  0.1741E+03
      0.572  0.2981E+02  0.1757E+03
      0.628  0.5865E+00  0.1757E+03
      0.683  0.1620E+00  0.1758E+03
      0.739  0.9854E+01  0.1763E+03
      0.795  0.7595E+02  0.1805E+03
      0.850  0.1028E+03  0.1862E+03
      0.906  0.8812E+02  0.1911E+03
      0.961  0.1520E+03  0.1996E+03
      1.017  0.1085E+03  0.2056E+03
      1.073  0.6863E+02  0.2094E+03
      1.128  0.3827E+02  0.2116E+03
      1.184  0.1337E+02  0.2123E+03
      1.239  0.8953E+02  0.2173E+03
      1.295  0.1099E+03  0.2234E+03
      1.351  0.4674E+02  0.2260E+03
      1.406  0.4575E+02  0.2286E+03
      1.462  0.8871E+02  0.2335E+03
      1.518  0.4369E+02  0.2359E+03
      1.573  0.2703E+02  0.2374E+03
      1.629  0.5661E+02  0.2406E+03
      1.684  0.1764E+03  0.2504E+03
      1.740  0.2043E+03  0.2617E+03
      1.796  0.1472E+03  0.2699E+03
      1.851  0.9012E+02  0.2749E+03
      1.907  0.1780E+02  0.2759E+03
      1.962  0.1992E+02  0.2770E+03
      2.018  0.5047E+02  0.2798E+03
      2.074  0.9524E+02  0.2851E+03
      2.129  0.1603E+03  0.2940E+03
      2.185  0.1904E+03  0.3046E+03
      2.240  0.7364E+02  0.3087E+03
      2.296  0.1741E+02  0.3097E+03
      2.352  0.1307E+02  0.3104E+03
      2.407  0.2038E+02  0.3116E+03
      2.463  0.1018E+03  0.3172E+03
      2.519  0.1153E+03  0.3236E+03
      2.574  0.8100E+02  0.3281E+03
      2.630  0.1615E+03  0.3371E+03
      2.685  0.1108E+03  0.3433E+03
      2.741  0.5170E+02  0.3462E+03
      2.797  0.1115E+03  0.3524E+03
      2.852  0.2208E+03  0.3646E+03
      2.908  0.3158E+03  0.3822E+03
      2.963  0.3096E+03  0.3994E+03
      3.019  0.1933E+03  0.4102E+03
      3.075  0.1670E+03  0.4195E+03
      3.130  0.2836E+03  0.4352E+03
      3.186  0.2705E+03  0.4503E+03
      3.242  0.1945E+03  0.4611E+03
      3.297  0.1341E+03  0.4685E+03
      3.353  0.1326E+03  0.4759E+03
      3.408  0.2477E+03  0.4897E+03
      3.464  0.2225E+03  0.5021E+03
      3.520  0.1823E+03  0.5122E+03
      3.575  0.1823E+03  0.5223E+03
      3.631  0.2559E+03  0.5366E+03
      3.686  0.5388E+03  0.5665E+03
      3.742  0.4983E+03  0.5943E+03
      3.798  0.3548E+03  0.6140E+03
      3.853  0.2988E+03  0.6306E+03
      3.909  0.4804E+03  0.6573E+03
      3.964  0.4632E+03  0.6831E+03
      4.020  0.2680E+03  0.6980E+03
      4.076  0.2735E+03  0.7132E+03
      4.131  0.3411E+03  0.7322E+03
      4.187  0.2186E+03  0.7443E+03
      4.243  0.2288E+03  0.7570E+03
      4.298  0.2584E+03  0.7714E+03
      4.354  0.2938E+03  0.7877E+03
      4.409  0.3510E+03  0.8073E+03
      4.465  0.5418E+03  0.8374E+03
      4.521  0.5876E+03  0.8701E+03
      4.576  0.5371E+03  0.8999E+03
      4.632  0.4551E+03  0.9253E+03
      4.687  0.4206E+03  0.9486E+03
      4.743  0.6875E+03  0.9869E+03
      4.799  0.8621E+03  0.1035E+04
      4.854  0.1258E+04  0.1105E+04
      4.910  0.1193E+04  0.1171E+04
      4.966  0.8661E+03  0.1219E+04
      5.021  0.7548E+03  0.1261E+04
      5.077  0.6377E+03  0.1297E+04
      5.132  0.5006E+03  0.1325E+04
      5.188  0.5774E+03  0.1357E+04
      5.244  0.5321E+03  0.1386E+04
      5.299  0.4884E+03  0.1413E+04
      5.355  0.3128E+03  0.1431E+04
      5.410  0.1759E+03  0.1441E+04
      5.466  0.1547E+03  0.1449E+04
      5.522  0.1495E+03  0.1458E+04
      5.577  0.9254E+02  0.1463E+04
      5.633  0.9837E+02  0.1468E+04
      5.688  0.3550E+02  0.1470E+04
      5.744  0.8159E+01  0.1471E+04
      5.800  0.7465E+02  0.1475E+04
      5.855  0.1264E+03  0.1482E+04
      5.911  0.5138E+02  0.1485E+04
      5.967  0.8486E+02  0.1489E+04
      6.022  0.1023E+03  0.1495E+04
      6.078  0.1037E+03  0.1501E+04
      6.133  0.2521E+03  0.1515E+04
      6.189  0.3409E+03  0.1534E+04
      6.245  0.1726E+03  0.1543E+04
      6.300  0.1587E+03  0.1552E+04
      6.356  0.2564E+03  0.1566E+04
      6.411  0.2252E+03  0.1579E+04
      6.467  0.1877E+03  0.1589E+04
      6.523  0.1856E+03  0.1600E+04
      6.578  0.1327E+03  0.1607E+04
      6.634  0.1208E+03  0.1614E+04
      6.690  0.9382E+02  0.1619E+04
      6.745  0.3248E+02  0.1621E+04
      6.801  0.7019E+02  0.1625E+04
      6.856  0.1108E+03  0.1631E+04
      6.912  0.1196E+03  0.1638E+04
      6.968  0.6103E+02  0.1641E+04
      7.023  0.7482E+02  0.1645E+04
      7.079  0.6654E+02  0.1649E+04
      7.134  0.8301E+02  0.1653E+04
      7.190  0.8506E+02  0.1658E+04
      7.246  0.8513E+02  0.1663E+04
      7.301  0.8410E+02  0.1668E+04
      7.357  0.1030E+03  0.1673E+04
      7.412  0.1858E+03  0.1684E+04
      7.468  0.1143E+03  0.1690E+04
      7.524  0.3769E+02  0.1692E+04
      7.579  0.3613E+02  0.1694E+04
      7.635  0.6207E+02  0.1698E+04
      7.691  0.2810E+02  0.1699E+04
      7.746  0.9090E+01  0.1700E+04
      7.802  0.5084E+02  0.1703E+04
      7.857  0.5196E+02  0.1705E+04
      7.913  0.5564E+02  0.1708E+04
      7.969  0.4475E+02  0.1711E+04
      8.024  0.1018E+02  0.1712E+04
      8.080  0.2766E+02  0.1713E+04
      8.135  0.1952E+02  0.1714E+04
      8.191  0.6508E+01  0.1715E+04
      8.247  0.2110E+02  0.1716E+04
      8.302  0.2176E+02  0.1717E+04
      8.358  0.1625E+02  0.1718E+04
      8.414  0.1121E+02  0.1718E+04
      8.469  0.2978E+02  0.1720E+04
      8.525  0.1920E+02  0.1721E+04
      8.580  0.5301E+02  0.1724E+04
      8.636  0.9948E+02  0.1730E+04
      8.692  0.8928E+02  0.1735E+04
      8.747  0.1562E+03  0.1743E+04
      8.803  0.2213E+03  0.1756E+04
      8.858  0.1399E+03  0.1763E+04
      8.914  0.1089E+03  0.1769E+04
      8.970  0.1064E+03  0.1775E+04
      9.025  0.3729E+02  0.1777E+04
      9.081  0.8166E+02  0.1782E+04
      9.136  0.1386E+03  0.1790E+04
      9.192  0.1149E+03  0.1796E+04
      9.248  0.9317E+02  0.1801E+04
      9.303  0.7837E+02  0.1806E+04
      9.359  0.3930E+02  0.1808E+04
      9.415  0.4839E+02  0.1810E+04
      9.470  0.7511E+02  0.1815E+04
      9.526  0.1373E+03  0.1822E+04
      9.581  0.2335E+03  0.1835E+04
      9.637  0.1841E+03  0.1846E+04
      9.693  0.5403E+02  0.1849E+04
      9.748  0.3420E+02  0.1850E+04
      9.804  0.9996E+02  0.1856E+04
      9.859  0.2231E+03  0.1868E+04
      9.915  0.1692E+03  0.1878E+04
      9.971  0.7762E+02  0.1882E+04
     10.026  0.1531E+02  0.1883E+04
     10.082  0.1604E+01  0.1883E+04
     10.138  0.3348E+02  0.1885E+04
     10.193  0.1247E+03  0.1892E+04
     10.249  0.1322E+03  0.1899E+04
     10.304  0.1802E+03  0.1909E+04
     10.360  0.8842E+02  0.1914E+04
     10.416  0.2798E+02  0.1916E+04
     10.471  0.6573E+02  0.1919E+04
     10.527  0.9122E+02  0.1924E+04
     10.582  0.8803E+02  0.1929E+04
     10.638  0.8782E+02  0.1934E+04
     10.694  0.9245E+02  0.1939E+04
     10.749  0.5683E+02  0.1943E+04
     10.805  0.4338E+02  0.1945E+04
     10.860  0.1958E+02  0.1946E+04
     10.916  0.3594E+02  0.1948E+04
     10.972  0.3144E+02  0.1950E+04
     11.027  0.4195E+01  0.1950E+04
     11.083  0.7751E-01  0.1950E+04
     11.139  0.1768E-03  0.1950E+04
     11.194  0.4390E-07  0.1950E+04
     11.250  0.1073E-11  0.1950E+04
     11.305  0.0000E+00  0.1950E+04
     11.361  0.0000E+00  0.1950E+04
     11.417  0.0000E+00  0.1950E+04
     11.472  0.0000E+00  0.1950E+04
     11.528  0.0000E+00  0.1950E+04
     11.583  0.0000E+00  0.1950E+04
     11.639  0.0000E+00  0.1950E+04
     11.695  0.0000E+00  0.1950E+04
