/store/Terry_project/NiAlO_EDIP_fitting_DFT/PureNiAl/PureNiAl_iter_last_no_ox_lmp.data (written by ASE) 

250 	 atoms 
2  atom types
0.0                    14.5  xlo xhi
0.0                    14.5  ylo yhi
0.0                    14.5  zlo zhi


Atoms 

     1   2                       0                       0                       0
     2   2                       0                       0      2.9000000000000004
     3   2                       0                       0      5.8000000000000007
     4   2                       0                       0      8.6999999999999993
     5   2                       0                       0      11.600000000000001
     6   2                       0      2.9000000000000004                       0
     7   2                       0      2.9000000000000004      2.9000000000000004
     8   2                       0      2.9000000000000004      5.8000000000000007
     9   2                       0      2.9000000000000004      8.6999999999999993
    10   2                       0      2.9000000000000004      11.600000000000001
    11   2                       0      5.8000000000000007                       0
    12   2                       0      5.8000000000000007      2.9000000000000004
    13   2                       0      5.8000000000000007      5.8000000000000007
    14   2                       0      5.8000000000000007      8.6999999999999993
    15   2                       0      5.8000000000000007      11.600000000000001
    16   2                       0      8.6999999999999993                       0
    17   2                       0      8.6999999999999993      2.9000000000000004
    18   2                       0      8.6999999999999993      5.8000000000000007
    19   2                       0      8.6999999999999993      8.6999999999999993
    20   2                       0      8.6999999999999993      11.600000000000001
    21   2                       0      11.600000000000001                       0
    22   2                       0      11.600000000000001      2.9000000000000004
    23   2                       0      11.600000000000001      5.8000000000000007
    24   2                       0      11.600000000000001      8.6999999999999993
    25   2                       0      11.600000000000001      11.600000000000001
    26   2      2.9000000000000004                       0                       0
    27   2      2.9000000000000004                       0      2.9000000000000004
    28   2      2.9000000000000004                       0      5.8000000000000007
    29   2      2.9000000000000004                       0      8.6999999999999993
    30   2      2.9000000000000004                       0      11.600000000000001
    31   2      2.9000000000000004      2.9000000000000004                       0
    32   2      2.9000000000000004      2.9000000000000004      2.9000000000000004
    33   2      2.9000000000000004      2.9000000000000004      5.8000000000000007
    34   2      2.9000000000000004      2.9000000000000004      8.6999999999999993
    35   2      2.9000000000000004      2.9000000000000004      11.600000000000001
    36   2      2.9000000000000004      5.8000000000000007                       0
    37   2      2.9000000000000004      5.8000000000000007      2.9000000000000004
    38   2      2.9000000000000004      5.8000000000000007      5.8000000000000007
    39   2      2.9000000000000004      5.8000000000000007      8.6999999999999993
    40   2      2.9000000000000004      5.8000000000000007      11.600000000000001
    41   2      2.9000000000000004      8.6999999999999993                       0
    42   2      2.9000000000000004      8.6999999999999993      2.9000000000000004
    43   2      2.9000000000000004      8.6999999999999993      5.8000000000000007
    44   2      2.9000000000000004      8.6999999999999993      8.6999999999999993
    45   2      2.9000000000000004      8.6999999999999993      11.600000000000001
    46   2      2.9000000000000004      11.600000000000001                       0
    47   2      2.9000000000000004      11.600000000000001      2.9000000000000004
    48   2      2.9000000000000004      11.600000000000001      5.8000000000000007
    49   2      2.9000000000000004      11.600000000000001      8.6999999999999993
    50   2      2.9000000000000004      11.600000000000001      11.600000000000001
    51   2      5.8000000000000007                       0                       0
    52   2      5.8000000000000007                       0      2.9000000000000004
    53   2      5.8000000000000007                       0      5.8000000000000007
    54   2      5.8000000000000007                       0      8.6999999999999993
    55   2      5.8000000000000007                       0      11.600000000000001
    56   2      5.8000000000000007      2.9000000000000004                       0
    57   2      5.8000000000000007      2.9000000000000004      2.9000000000000004
    58   2      5.8000000000000007      2.9000000000000004      5.8000000000000007
    59   2      5.8000000000000007      2.9000000000000004      8.6999999999999993
    60   2      5.8000000000000007      2.9000000000000004      11.600000000000001
    61   2      5.8000000000000007      5.8000000000000007                       0
    62   2      5.8000000000000007      5.8000000000000007      2.9000000000000004
    63   2      5.8000000000000007      5.8000000000000007      5.8000000000000007
    64   2      5.8000000000000007      5.8000000000000007      8.6999999999999993
    65   2      5.8000000000000007      5.8000000000000007      11.600000000000001
    66   2      5.8000000000000007      8.6999999999999993                       0
    67   2      5.8000000000000007      8.6999999999999993      2.9000000000000004
    68   2      5.8000000000000007      8.6999999999999993      5.8000000000000007
    69   2      5.8000000000000007      8.6999999999999993      8.6999999999999993
    70   2      5.8000000000000007      8.6999999999999993      11.600000000000001
    71   2      5.8000000000000007      11.600000000000001                       0
    72   2      5.8000000000000007      11.600000000000001      2.9000000000000004
    73   2      5.8000000000000007      11.600000000000001      5.8000000000000007
    74   2      5.8000000000000007      11.600000000000001      8.6999999999999993
    75   2      5.8000000000000007      11.600000000000001      11.600000000000001
    76   2      8.6999999999999993                       0                       0
    77   2      8.6999999999999993                       0      2.9000000000000004
    78   2      8.6999999999999993                       0      5.8000000000000007
    79   2      8.6999999999999993                       0      8.6999999999999993
    80   2      8.6999999999999993                       0      11.600000000000001
    81   2      8.6999999999999993      2.9000000000000004                       0
    82   2      8.6999999999999993      2.9000000000000004      2.9000000000000004
    83   2      8.6999999999999993      2.9000000000000004      5.8000000000000007
    84   2      8.6999999999999993      2.9000000000000004      8.6999999999999993
    85   2      8.6999999999999993      2.9000000000000004      11.600000000000001
    86   2      8.6999999999999993      5.8000000000000007                       0
    87   2      8.6999999999999993      5.8000000000000007      2.9000000000000004
    88   2      8.6999999999999993      5.8000000000000007      5.8000000000000007
    89   2      8.6999999999999993      5.8000000000000007      8.6999999999999993
    90   2      8.6999999999999993      5.8000000000000007      11.600000000000001
    91   2      8.6999999999999993      8.6999999999999993                       0
    92   2      8.6999999999999993      8.6999999999999993      2.9000000000000004
    93   2      8.6999999999999993      8.6999999999999993      5.8000000000000007
    94   2      8.6999999999999993      8.6999999999999993      8.6999999999999993
    95   2      8.6999999999999993      8.6999999999999993      11.600000000000001
    96   2      8.6999999999999993      11.600000000000001                       0
    97   2      8.6999999999999993      11.600000000000001      2.9000000000000004
    98   2      8.6999999999999993      11.600000000000001      5.8000000000000007
    99   2      8.6999999999999993      11.600000000000001      8.6999999999999993
   100   2      8.6999999999999993      11.600000000000001      11.600000000000001
   101   2      11.600000000000001                       0                       0
   102   2      11.600000000000001                       0      2.9000000000000004
   103   2      11.600000000000001                       0      5.8000000000000007
   104   2      11.600000000000001                       0      8.6999999999999993
   105   2      11.600000000000001                       0      11.600000000000001
   106   2      11.600000000000001      2.9000000000000004                       0
   107   2      11.600000000000001      2.9000000000000004      2.9000000000000004
   108   2      11.600000000000001      2.9000000000000004      5.8000000000000007
   109   2      11.600000000000001      2.9000000000000004      8.6999999999999993
   110   2      11.600000000000001      2.9000000000000004      11.600000000000001
   111   2      11.600000000000001      5.8000000000000007                       0
   112   2      11.600000000000001      5.8000000000000007      2.9000000000000004
   113   2      11.600000000000001      5.8000000000000007      5.8000000000000007
   114   2      11.600000000000001      5.8000000000000007      8.6999999999999993
   115   2      11.600000000000001      5.8000000000000007      11.600000000000001
   116   2      11.600000000000001      8.6999999999999993                       0
   117   2      11.600000000000001      8.6999999999999993      2.9000000000000004
   118   2      11.600000000000001      8.6999999999999993      5.8000000000000007
   119   2      11.600000000000001      8.6999999999999993      8.6999999999999993
   120   2      11.600000000000001      8.6999999999999993      11.600000000000001
   121   2      11.600000000000001      11.600000000000001                       0
   122   2      11.600000000000001      11.600000000000001      2.9000000000000004
   123   2      11.600000000000001      11.600000000000001      5.8000000000000007
   124   2      11.600000000000001      11.600000000000001      8.6999999999999993
   125   2      11.600000000000001      11.600000000000001      11.600000000000001
   126   1      1.4500000000000002      1.4500000000000002      1.4500000000000002
   127   1      1.4500000000000002      1.4500000000000002      4.3499999999999996
   128   1      1.4500000000000002      1.4500000000000002                    7.25
   129   1      1.4500000000000002      1.4500000000000002      10.149999999999999
   130   1      1.4500000000000002      1.4500000000000002      13.050000000000001
   131   1      1.4500000000000002      4.3499999999999996      1.4500000000000002
   132   1      1.4500000000000002      4.3499999999999996      4.3499999999999996
   133   1      1.4500000000000002      4.3499999999999996                    7.25
   134   1      1.4500000000000002      4.3499999999999996      10.149999999999999
   135   1      1.4500000000000002      4.3499999999999996      13.050000000000001
   136   1      1.4500000000000002                    7.25      1.4500000000000002
   137   1      1.4500000000000002                    7.25      4.3499999999999996
   138   1      1.4500000000000002                    7.25                    7.25
   139   1      1.4500000000000002                    7.25      10.149999999999999
   140   1      1.4500000000000002                    7.25      13.050000000000001
   141   1      1.4500000000000002      10.149999999999999      1.4500000000000002
   142   1      1.4500000000000002      10.149999999999999      4.3499999999999996
   143   1      1.4500000000000002      10.149999999999999                    7.25
   144   1      1.4500000000000002      10.149999999999999      10.149999999999999
   145   1      1.4500000000000002      10.149999999999999      13.050000000000001
   146   1      1.4500000000000002      13.050000000000001      1.4500000000000002
   147   1      1.4500000000000002      13.050000000000001      4.3499999999999996
   148   1      1.4500000000000002      13.050000000000001                    7.25
   149   1      1.4500000000000002      13.050000000000001      10.149999999999999
   150   1      1.4500000000000002      13.050000000000001      13.050000000000001
   151   1      4.3499999999999996      1.4500000000000002      1.4500000000000002
   152   1      4.3499999999999996      1.4500000000000002      4.3499999999999996
   153   1      4.3499999999999996      1.4500000000000002                    7.25
   154   1      4.3499999999999996      1.4500000000000002      10.149999999999999
   155   1      4.3499999999999996      1.4500000000000002      13.050000000000001
   156   1      4.3499999999999996      4.3499999999999996      1.4500000000000002
   157   1      4.3499999999999996      4.3499999999999996      4.3499999999999996
   158   1      4.3499999999999996      4.3499999999999996                    7.25
   159   1      4.3499999999999996      4.3499999999999996      10.149999999999999
   160   1      4.3499999999999996      4.3499999999999996      13.050000000000001
   161   1      4.3499999999999996                    7.25      1.4500000000000002
   162   1      4.3499999999999996                    7.25      4.3499999999999996
   163   1      4.3499999999999996                    7.25                    7.25
   164   1      4.3499999999999996                    7.25      10.149999999999999
   165   1      4.3499999999999996                    7.25      13.050000000000001
   166   1      4.3499999999999996      10.149999999999999      1.4500000000000002
   167   1      4.3499999999999996      10.149999999999999      4.3499999999999996
   168   1      4.3499999999999996      10.149999999999999                    7.25
   169   1      4.3499999999999996      10.149999999999999      10.149999999999999
   170   1      4.3499999999999996      10.149999999999999      13.050000000000001
   171   1      4.3499999999999996      13.050000000000001      1.4500000000000002
   172   1      4.3499999999999996      13.050000000000001      4.3499999999999996
   173   1      4.3499999999999996      13.050000000000001                    7.25
   174   1      4.3499999999999996      13.050000000000001      10.149999999999999
   175   1      4.3499999999999996      13.050000000000001      13.050000000000001
   176   1                    7.25      1.4500000000000002      1.4500000000000002
   177   1                    7.25      1.4500000000000002      4.3499999999999996
   178   1                    7.25      1.4500000000000002                    7.25
   179   1                    7.25      1.4500000000000002      10.149999999999999
   180   1                    7.25      1.4500000000000002      13.050000000000001
   181   1                    7.25      4.3499999999999996      1.4500000000000002
   182   1                    7.25      4.3499999999999996      4.3499999999999996
   183   1                    7.25      4.3499999999999996                    7.25
   184   1                    7.25      4.3499999999999996      10.149999999999999
   185   1                    7.25      4.3499999999999996      13.050000000000001
   186   1                    7.25                    7.25      1.4500000000000002
   187   1                    7.25                    7.25      4.3499999999999996
   188   1                    7.25                    7.25                    7.25
   189   1                    7.25                    7.25      10.149999999999999
   190   1                    7.25                    7.25      13.050000000000001
   191   1                    7.25      10.149999999999999      1.4500000000000002
   192   1                    7.25      10.149999999999999      4.3499999999999996
   193   1                    7.25      10.149999999999999                    7.25
   194   1                    7.25      10.149999999999999      10.149999999999999
   195   1                    7.25      10.149999999999999      13.050000000000001
   196   1                    7.25      13.050000000000001      1.4500000000000002
   197   1                    7.25      13.050000000000001      4.3499999999999996
   198   1                    7.25      13.050000000000001                    7.25
   199   1                    7.25      13.050000000000001      10.149999999999999
   200   1                    7.25      13.050000000000001      13.050000000000001
   201   1      10.149999999999999      1.4500000000000002      1.4500000000000002
   202   1      10.149999999999999      1.4500000000000002      4.3499999999999996
   203   1      10.149999999999999      1.4500000000000002                    7.25
   204   1      10.149999999999999      1.4500000000000002      10.149999999999999
   205   1      10.149999999999999      1.4500000000000002      13.050000000000001
   206   1      10.149999999999999      4.3499999999999996      1.4500000000000002
   207   1      10.149999999999999      4.3499999999999996      4.3499999999999996
   208   1      10.149999999999999      4.3499999999999996                    7.25
   209   1      10.149999999999999      4.3499999999999996      10.149999999999999
   210   1      10.149999999999999      4.3499999999999996      13.050000000000001
   211   1      10.149999999999999                    7.25      1.4500000000000002
   212   1      10.149999999999999                    7.25      4.3499999999999996
   213   1      10.149999999999999                    7.25                    7.25
   214   1      10.149999999999999                    7.25      10.149999999999999
   215   1      10.149999999999999                    7.25      13.050000000000001
   216   1      10.149999999999999      10.149999999999999      1.4500000000000002
   217   1      10.149999999999999      10.149999999999999      4.3499999999999996
   218   1      10.149999999999999      10.149999999999999                    7.25
   219   1      10.149999999999999      10.149999999999999      10.149999999999999
   220   1      10.149999999999999      10.149999999999999      13.050000000000001
   221   1      10.149999999999999      13.050000000000001      1.4500000000000002
   222   1      10.149999999999999      13.050000000000001      4.3499999999999996
   223   1      10.149999999999999      13.050000000000001                    7.25
   224   1      10.149999999999999      13.050000000000001      10.149999999999999
   225   1      10.149999999999999      13.050000000000001      13.050000000000001
   226   1      13.050000000000001      1.4500000000000002      1.4500000000000002
   227   1      13.050000000000001      1.4500000000000002      4.3499999999999996
   228   1      13.050000000000001      1.4500000000000002                    7.25
   229   1      13.050000000000001      1.4500000000000002      10.149999999999999
   230   1      13.050000000000001      1.4500000000000002      13.050000000000001
   231   1      13.050000000000001      4.3499999999999996      1.4500000000000002
   232   1      13.050000000000001      4.3499999999999996      4.3499999999999996
   233   1      13.050000000000001      4.3499999999999996                    7.25
   234   1      13.050000000000001      4.3499999999999996      10.149999999999999
   235   1      13.050000000000001      4.3499999999999996      13.050000000000001
   236   1      13.050000000000001                    7.25      1.4500000000000002
   237   1      13.050000000000001                    7.25      4.3499999999999996
   238   1      13.050000000000001                    7.25                    7.25
   239   1      13.050000000000001                    7.25      10.149999999999999
   240   1      13.050000000000001                    7.25      13.050000000000001
   241   1      13.050000000000001      10.149999999999999      1.4500000000000002
   242   1      13.050000000000001      10.149999999999999      4.3499999999999996
   243   1      13.050000000000001      10.149999999999999                    7.25
   244   1      13.050000000000001      10.149999999999999      10.149999999999999
   245   1      13.050000000000001      10.149999999999999      13.050000000000001
   246   1      13.050000000000001      13.050000000000001      1.4500000000000002
   247   1      13.050000000000001      13.050000000000001      4.3499999999999996
   248   1      13.050000000000001      13.050000000000001                    7.25
   249   1      13.050000000000001      13.050000000000001      10.149999999999999
   250   1      13.050000000000001      13.050000000000001      13.050000000000001
