<?xml version="1.0" encoding="ISO-8859-1"?>
<modeling>
 <generator>
  <i name="program" type="string">vasp </i>
  <i name="version" type="string">6.2.1  </i>
  <i name="subversion" type="string">16May21 (build Jun 16 2021 03:23:30) complex                          parallel </i>
  <i name="platform" type="string">LinuxPGI </i>
  <i name="date" type="string">2022 04 24 </i>
  <i name="time" type="string">18:26:50 </i>
 </generator>
 <incar>
  <i type="string" name="SYSTEM">NiAl</i>
  <i type="int" name="ISTART">     0</i>
  <i type="int" name="NELMIN">     6</i>
  <i name="EDIFF">      0.00000010</i>
  <i name="ENCUT">    360.00000000</i>
  <i type="string" name="LREAL">Auto</i>
  <i type="logical" name="LPLANE"> T  </i>
  <i type="int" name="ISMEAR">     0</i>
  <i name="SIGMA">      0.05000000</i>
  <i type="logical" name="LWAVE"> F  </i>
  <i type="logical" name="LCHARG"> F  </i>
  <i type="int" name="IVDW">    12</i>
 </incar>
 <primitive_cell>
  <structure name="primitive_cell" >
   <crystal>
    <varray name="basis" >
     <v>       2.90000000       0.00000000       0.00000000 </v>
     <v>       0.00000000       2.90000000       0.00000000 </v>
     <v>       0.00000000       0.00000000       2.90000000 </v>
    </varray>
    <i name="volume">     24.38900000 </i>
    <varray name="rec_basis" >
     <v>       0.34482759       0.00000000       0.00000000 </v>
     <v>       0.00000000       0.34482759       0.00000000 </v>
     <v>       0.00000000       0.00000000       0.34482759 </v>
    </varray>
   </crystal>
   <varray name="positions" >
    <v>       0.00000000       0.00000000       0.00000000 </v>
    <v>       0.50000000       0.50000000       0.50000000 </v>
   </varray>
  </structure>
  <varray name="primitive_index" >
   <v type="int" >        1 </v>
   <v type="int" >      126 </v>
  </varray>
 </primitive_cell>
 <kpoints>
  <generation param="Gamma">
   <v type="int" name="divisions">       2        2        2 </v>
   <v name="usershift">      0.00000000       0.00000000       0.00000000 </v>
   <v name="genvec1">      0.50000000       0.00000000       0.00000000 </v>
   <v name="genvec2">      0.00000000       0.50000000       0.00000000 </v>
   <v name="genvec3">      0.00000000       0.00000000       0.50000000 </v>
   <v name="shift">      0.00000000       0.00000000       0.00000000 </v>
  </generation>
  <varray name="kpointlist" >
   <v>       0.00000000       0.00000000       0.00000000 </v>
   <v>       0.50000000       0.00000000       0.00000000 </v>
   <v>       0.50000000       0.50000000       0.00000000 </v>
   <v>       0.50000000       0.50000000       0.50000000 </v>
  </varray>
  <varray name="weights" >
   <v>       0.12500000 </v>
   <v>       0.37500000 </v>
   <v>       0.37500000 </v>
   <v>       0.12500000 </v>
  </varray>
 </kpoints>
 <parameters>
  <separator name="general" >
   <i type="string" name="SYSTEM">NiAl</i>
   <i type="logical" name="LCOMPAT"> F  </i>
  </separator>
  <separator name="electronic" >
   <i type="string" name="PREC">normal</i>
   <i name="ENMAX">    360.00000000</i>
   <i name="ENAUG">    802.31000000</i>
   <i name="EDIFF">      0.00000010</i>
   <i type="int" name="IALGO">    38</i>
   <i type="int" name="IWAVPR">    10</i>
   <i type="int" name="NBANDS">   975</i>
   <i type="int" name="NBANDSLOW">    -1</i>
   <i type="int" name="NBANDSHIGH">    -1</i>
   <i name="NELECT">   1625.00000000</i>
   <i type="int" name="TURBO">     0</i>
   <i type="int" name="IRESTART">     0</i>
   <i type="int" name="NREBOOT">     0</i>
   <i type="int" name="NMIN">     0</i>
   <i name="EREF">      0.00000000</i>
   <separator name="electronic smearing" >
    <i type="int" name="ISMEAR">     0</i>
    <i name="SIGMA">      0.05000000</i>
    <i name="KSPACING">      0.50000000</i>
    <i type="logical" name="KGAMMA"> T  </i>
    <i type="logical" name="KBLOWUP"> T  </i>
   </separator>
   <separator name="electronic projectors" >
    <i type="logical" name="LREAL"> T  </i>
    <v name="ROPT">     -0.00050000     -0.00050000</v>
    <i type="int" name="LMAXPAW">  -100</i>
    <i type="int" name="LMAXMIX">     2</i>
    <i type="logical" name="NLSPLINE"> F  </i>
   </separator>
   <separator name="electronic startup" >
    <i type="int" name="ISTART">     0</i>
    <i type="int" name="ICHARG">     2</i>
    <i type="int" name="INIWAV">     1</i>
   </separator>
   <separator name="electronic spin" >
    <i type="int" name="ISPIN">     1</i>
    <i type="logical" name="LNONCOLLINEAR"> F  </i>
    <v name="MAGMOM">      1.00000000      1.00000000      1.00000000      1.00000000      1.00000000      1.00000000      1.00000000      1.00000000      1.00000000      1.00000000      1.00000000      1.00000000      1.00000000      1.00000000      1.00000000      1.00000000      1.00000000      1.00000000      1.00000000      1.00000000
      1.00000000      1.00000000      1.00000000      1.00000000      1.00000000      1.00000000      1.00000000      1.00000000      1.00000000      1.00000000      1.00000000      1.00000000      1.00000000      1.00000000      1.00000000      1.00000000      1.00000000      1.00000000      1.00000000      1.00000000
      1.00000000      1.00000000      1.00000000      1.00000000      1.00000000      1.00000000      1.00000000      1.00000000      1.00000000      1.00000000      1.00000000      1.00000000      1.00000000      1.00000000      1.00000000      1.00000000      1.00000000      1.00000000      1.00000000      1.00000000
      1.00000000      1.00000000      1.00000000      1.00000000      1.00000000      1.00000000      1.00000000      1.00000000      1.00000000      1.00000000      1.00000000      1.00000000      1.00000000      1.00000000      1.00000000      1.00000000      1.00000000      1.00000000      1.00000000      1.00000000
      1.00000000      1.00000000      1.00000000      1.00000000      1.00000000      1.00000000      1.00000000      1.00000000      1.00000000      1.00000000      1.00000000      1.00000000      1.00000000      1.00000000      1.00000000      1.00000000      1.00000000      1.00000000      1.00000000      1.00000000
      1.00000000      1.00000000      1.00000000      1.00000000      1.00000000      1.00000000      1.00000000      1.00000000      1.00000000      1.00000000      1.00000000      1.00000000      1.00000000      1.00000000      1.00000000      1.00000000      1.00000000      1.00000000      1.00000000      1.00000000
      1.00000000      1.00000000      1.00000000      1.00000000      1.00000000      1.00000000      1.00000000      1.00000000      1.00000000      1.00000000      1.00000000      1.00000000      1.00000000      1.00000000      1.00000000      1.00000000      1.00000000      1.00000000      1.00000000      1.00000000
      1.00000000      1.00000000      1.00000000      1.00000000      1.00000000      1.00000000      1.00000000      1.00000000      1.00000000      1.00000000      1.00000000      1.00000000      1.00000000      1.00000000      1.00000000      1.00000000      1.00000000      1.00000000      1.00000000      1.00000000
      1.00000000      1.00000000      1.00000000      1.00000000      1.00000000      1.00000000      1.00000000      1.00000000      1.00000000      1.00000000      1.00000000      1.00000000      1.00000000      1.00000000      1.00000000      1.00000000      1.00000000      1.00000000      1.00000000      1.00000000
      1.00000000      1.00000000      1.00000000      1.00000000      1.00000000      1.00000000      1.00000000      1.00000000      1.00000000      1.00000000      1.00000000      1.00000000      1.00000000      1.00000000      1.00000000      1.00000000      1.00000000      1.00000000      1.00000000      1.00000000
      1.00000000      1.00000000      1.00000000      1.00000000      1.00000000      1.00000000      1.00000000      1.00000000      1.00000000      1.00000000      1.00000000      1.00000000      1.00000000      1.00000000      1.00000000      1.00000000      1.00000000      1.00000000      1.00000000      1.00000000
      1.00000000      1.00000000      1.00000000      1.00000000      1.00000000      1.00000000      1.00000000      1.00000000      1.00000000      1.00000000      1.00000000      1.00000000      1.00000000      1.00000000      1.00000000      1.00000000      1.00000000      1.00000000      1.00000000      1.00000000
      1.00000000      1.00000000      1.00000000      1.00000000      1.00000000      1.00000000      1.00000000      1.00000000      1.00000000      1.00000000</v>
    <i name="NUPDOWN">     -1.00000000</i>
    <i type="logical" name="LSORBIT"> F  </i>
    <v name="SAXIS">      0.00000000      0.00000000      1.00000000</v>
    <i type="logical" name="LSPIRAL"> F  </i>
    <v name="QSPIRAL">      0.00000000      0.00000000      0.00000000</v>
    <i type="logical" name="LZEROZ"> F  </i>
   </separator>
   <separator name="electronic exchange-correlation" >
    <i type="logical" name="LASPH"> F  </i>
    <i type="logical" name="LMETAGGA"> F  </i>
   </separator>
   <separator name="electronic convergence" >
    <i type="int" name="NELM">    60</i>
    <i type="int" name="NELMDL">    -5</i>
    <i type="int" name="NELMIN">     6</i>
    <i name="ENINI">    360.00000000</i>
    <separator name="electronic convergence detail" >
     <i type="logical" name="LDIAG"> T  </i>
     <i type="logical" name="LSUBROT"> F  </i>
     <i name="WEIMIN">      0.00000000</i>
     <i name="EBREAK">      0.00000000</i>
     <i name="DEPER">      0.30000000</i>
     <i type="int" name="NRMM">     4</i>
     <i name="TIME">      0.40000000</i>
    </separator>
   </separator>
   <separator name="electronic mixer" >
    <i name="AMIX">      0.40000000</i>
    <i name="BMIX">      1.00000000</i>
    <i name="AMIN">      0.10000000</i>
    <i name="AMIX_MAG">      1.60000000</i>
    <i name="BMIX_MAG">      1.00000000</i>
    <separator name="electronic mixer details" >
     <i type="int" name="IMIX">     4</i>
     <i type="logical" name="MIXFIRST"> F  </i>
     <i type="int" name="MAXMIX">   -45</i>
     <i name="WC">    100.00000000</i>
     <i type="int" name="INIMIX">     1</i>
     <i type="int" name="MIXPRE">     1</i>
     <i type="int" name="MREMOVE">     5</i>
    </separator>
   </separator>
   <separator name="electronic dipolcorrection" >
    <i type="logical" name="LDIPOL"> F  </i>
    <i type="logical" name="LMONO"> F  </i>
    <i type="int" name="IDIPOL">     0</i>
    <i name="EPSILON">      1.00000000</i>
    <v name="DIPOL">   -100.00000000   -100.00000000   -100.00000000</v>
    <i name="EFIELD">      0.00000000</i>
   </separator>
  </separator>
  <separator name="grids" >
   <i type="int" name="NGX">    70</i>
   <i type="int" name="NGY">    70</i>
   <i type="int" name="NGZ">    70</i>
   <i type="int" name="NGXF">   140</i>
   <i type="int" name="NGYF">   140</i>
   <i type="int" name="NGZF">   140</i>
   <i type="logical" name="ADDGRID"> F  </i>
  </separator>
  <separator name="ionic" >
   <i type="int" name="NSW">     0</i>
   <i type="int" name="IBRION">    -1</i>
   <i type="int" name="MDALGO">     0</i>
   <i type="int" name="ISIF">     2</i>
   <i name="PSTRESS">      0.00000000</i>
   <i name="EDIFFG">      0.00000100</i>
   <i type="int" name="NFREE">     0</i>
   <i name="POTIM">      0.50000000</i>
   <i name="SMASS">     -3.00000000</i>
   <i name="SCALEE">      1.00000000</i>
  </separator>
  <separator name="ionic md" >
   <i name="TEBEG">      0.00010000</i>
   <i name="TEEND">      0.00010000</i>
   <i type="int" name="NBLOCK">     1</i>
   <i type="int" name="KBLOCK">     1</i>
   <i type="int" name="NPACO">   256</i>
   <i name="APACO">     16.00000000</i>
  </separator>
  <separator name="symmetry" >
   <i type="int" name="ISYM">     2</i>
   <i name="SYMPREC">      0.00001000</i>
  </separator>
  <separator name="dos" >
   <i type="int" name="LORBIT">     0</i>
   <v name="RWIGS">     -1.00000000     -1.00000000</v>
   <i type="int" name="NEDOS">   301</i>
   <i name="EMIN">     10.00000000</i>
   <i name="EMAX">    -10.00000000</i>
   <i name="EFERMI">      0.00000000</i>
  </separator>
  <separator name="writing" >
   <i type="int" name="NWRITE">     2</i>
   <i type="logical" name="LWAVE"> F  </i>
   <i type="logical" name="LDOWNSAMPLE"> F  </i>
   <i type="logical" name="LCHARG"> F  </i>
   <i type="logical" name="LPARD"> F  </i>
   <i type="logical" name="LVTOT"> F  </i>
   <i type="logical" name="LVHAR"> F  </i>
   <i type="logical" name="LELF"> F  </i>
   <i type="logical" name="LOPTICS"> F  </i>
   <v name="STM">      0.00000000      0.00000000      0.00000000      0.00000000      0.00000000      0.00000000      0.00000000</v>
  </separator>
  <separator name="performance" >
   <i type="int" name="NPAR">     1</i>
   <i type="int" name="NSIM">     4</i>
   <i type="int" name="NBLK">    -1</i>
   <i type="logical" name="LPLANE"> T  </i>
   <i type="logical" name="LSCALAPACK"> T  </i>
   <i type="logical" name="LSCAAWARE"> F  </i>
   <i type="logical" name="LSCALU"> F  </i>
   <i type="logical" name="LASYNC"> F  </i>
   <i type="logical" name="LORBITALREAL"> F  </i>
  </separator>
  <separator name="miscellaneous" >
   <i type="int" name="IDIOT">     3</i>
   <i type="int" name="PHON_NSTRUCT">    -1</i>
   <i type="logical" name="LMUSIC"> F  </i>
   <v name="POMASS">     58.69000000     26.98200000</v>
   <v name="DARWINR">      0.00000000      0.00000000</v>
   <v name="DARWINV">      1.00000000      1.00000000</v>
   <i type="logical" name="LCORR"> T  </i>
  </separator>
  <i type="logical" name="GGA_COMPAT"> T  </i>
  <i type="logical" name="LBERRY"> F  </i>
  <i type="int" name="ICORELEVEL">     0</i>
  <i type="logical" name="LDAU"> F  </i>
  <i type="int" name="I_CONSTRAINED_M">     0</i>
  <separator name="electronic exchange-correlation" >
   <i type="string" name="GGA">--</i>
   <i type="int" name="VOSKOWN">     0</i>
   <i type="logical" name="LHFCALC"> F  </i>
   <i type="string" name="PRECFOCK"></i>
   <i type="logical" name="LSYMGRAD"> F  </i>
   <i type="logical" name="LHFONE"> F  </i>
   <i type="logical" name="LRHFCALC"> F  </i>
   <i type="logical" name="LTHOMAS"> F  </i>
   <i type="logical" name="LMODELHF"> F  </i>
   <i type="logical" name="LFOCKACE"> F  </i>
   <i name="ENCUT4O">     -1.00000000</i>
   <i type="int" name="EXXOEP">     0</i>
   <i type="int" name="FOURORBIT">     0</i>
   <i name="AEXX">      0.00000000</i>
   <i name="HFALPHA">      0.00000000</i>
   <i name="MCALPHA">      0.00000000</i>
   <i name="ALDAX">      1.00000000</i>
   <i name="AGGAX">      1.00000000</i>
   <i name="ALDAC">      1.00000000</i>
   <i name="AGGAC">      1.00000000</i>
   <i type="int" name="NKREDX">     1</i>
   <i type="int" name="NKREDY">     1</i>
   <i type="int" name="NKREDZ">     1</i>
   <i type="logical" name="SHIFTRED"> F  </i>
   <i type="logical" name="ODDONLY"> F  </i>
   <i type="logical" name="EVENONLY"> F  </i>
   <i type="int" name="LMAXFOCK">     0</i>
   <i type="int" name="NMAXFOCKAE">     0</i>
   <i type="logical" name="LFOCKAEDFT"> F  </i>
   <i name="HFSCREEN">      0.00000000</i>
   <i name="HFSCREENC">      0.00000000</i>
   <i type="int" name="NBANDSGWLOW">     0</i>
  </separator>
  <separator name="vdW DFT" >
   <i type="logical" name="LUSE_VDW"> F  </i>
   <i name="Zab_VDW">     -0.84910000</i>
   <i name="PARAM1">      0.12340000</i>
   <i name="PARAM2">      1.00000000</i>
   <i name="PARAM3">      0.00000000</i>
  </separator>
  <separator name="model GW" >
   <i type="int" name="MODEL_GW">     0</i>
   <i name="MODEL_EPS0">      7.31670000</i>
   <i name="MODEL_ALPHA">      1.00000000</i>
  </separator>
  <separator name="linear response parameters" >
   <i type="logical" name="LEPSILON"> F  </i>
   <i type="logical" name="LRPA"> F  </i>
   <i type="logical" name="LNABLA"> F  </i>
   <i type="logical" name="LVEL"> F  </i>
   <i type="int" name="KINTER">     0</i>
   <i name="CSHIFT">      0.10000000</i>
   <i name="OMEGAMAX">     -1.00000000</i>
   <i name="DEG_THRESHOLD">      0.00200000</i>
   <i name="RTIME">     -0.10000000</i>
   <i name="WPLASMAI">      0.00000000</i>
   <v name="DFIELD">      0.00000000      0.00000000      0.00000000</v>
   <v name="WPLASMA">      0.00000000      0.00000000      0.00000000      0.00000000      0.00000000      0.00000000      0.00000000      0.00000000      0.00000000</v>
  </separator>
  <separator name="orbital magnetization" >
   <i type="logical" name="NUCIND"> F  </i>
   <v name="MAGPOS">      0.00000000      0.00000000      0.00000000</v>
   <i type="logical" name="LNICSALL"> T  </i>
   <i type="logical" name="ORBITALMAG"> F  </i>
   <i type="logical" name="LMAGBLOCH"> F  </i>
   <i type="logical" name="LCHIMAG"> F  </i>
   <i type="logical" name="LGAUGE"> T  </i>
   <i type="int" name="MAGATOM">     0</i>
   <v name="MAGDIPOL">      0.00000000      0.00000000      0.00000000</v>
   <v name="AVECCONST">      0.00000000      0.00000000      0.00000000</v>
  </separator>
  <separator name="response functions" >
   <i type="logical" name="LFINITE_TEMPERATURE"> F  </i>
   <i type="logical" name="LADDER"> F  </i>
   <i type="logical" name="LRPAFORCE"> F  </i>
   <i type="logical" name="LFXC"> F  </i>
   <i type="logical" name="LHARTREE"> T  </i>
   <i type="int" name="IBSE">     0</i>
   <v type="int" name="KPOINT">    -1     0     0     0</v>
   <i type="logical" name="LTCTC"> F  </i>
   <i type="logical" name="LTCTE"> F  </i>
   <i type="logical" name="LTETE"> F  </i>
   <i type="logical" name="LTRIPLET"> F  </i>
   <i type="logical" name="LFXCEPS"> F  </i>
   <i type="logical" name="LFXHEG"> F  </i>
   <i type="int" name="NATURALO">     2</i>
   <i type="logical" name="LHOLEGF"> F  </i>
   <i type="logical" name="L2ORDER"> F  </i>
   <i type="logical" name="LDMP1"> F  </i>
   <i type="logical" name="LMP2LT"> F  </i>
   <i type="logical" name="LSMP2LT"> F  </i>
   <i type="logical" name="LGWLF"> F  </i>
   <i name="ENCUTGW">     -2.00000000</i>
   <i name="ENCUTGWSOFT">     -2.00000000</i>
   <i name="ENCUTLF">     -1.00000000</i>
   <i type="logical" name="LESF_SPLINES"> F  </i>
   <i type="int" name="LMAXMP2">    -1</i>
   <i name="SCISSOR">      0.00000000</i>
   <i type="int" name="NOMEGA">     0</i>
   <i type="int" name="NOMEGAR">     0</i>
   <i type="int" name="NBANDSGW">    -1</i>
   <i type="int" name="NBANDSO">    -1</i>
   <i type="int" name="NBANDSV">    -1</i>
   <i type="int" name="NELM">     1</i>
   <i type="int" name="NELMHF">     1</i>
   <i type="int" name="DIM">     3</i>
   <i type="int" name="IESPILON">     4</i>
   <i type="int" name="ANTIRES">     0</i>
   <i name="OMEGAMAX">    -30.00000000</i>
   <i name="OMEGAMIN">    -30.00000000</i>
   <i name="OMEGATL">   -200.00000000</i>
   <i type="int" name="OMEGAGRID">     0</i>
   <i name="CSHIFT">     -0.10000000</i>
   <i type="logical" name="LSELFENERGY"> F  </i>
   <i type="logical" name="LSPECTRAL"> F  </i>
   <i type="logical" name="LSPECTRALGW"> F  </i>
   <i type="logical" name="LSINGLES"> F  </i>
   <i type="logical" name="LFERMIGW"> F  </i>
   <i type="logical" name="ODDONLYGW"> F  </i>
   <i type="logical" name="EVENONLYGW"> F  </i>
   <i type="int" name="NKREDLFX">     1</i>
   <i type="int" name="NKREDLFY">     1</i>
   <i type="int" name="NKREDLFZ">     1</i>
   <i type="int" name="MAXMEM">  2800</i>
   <i type="int" name="TELESCOPE">     0</i>
   <i type="int" name="NTAUPAR">    -1</i>
   <i type="int" name="NOMEGAPAR">    -1</i>
   <i name="DAMP_NEWTON">      0.80000001</i>
   <i name="LAMBDA">      1.00000000</i>
  </separator>
  <separator name="External order field" >
   <i name="OFIELD_KAPPA">      0.00000000</i>
   <v name="OFIELD_K">      0.00000000      0.00000000      0.00000000</v>
   <i name="OFIELD_Q6_NEAR">      0.00000000</i>
   <i name="OFIELD_Q6_FAR">      0.00000000</i>
   <i name="OFIELD_A">      0.00000000</i>
  </separator>
  <separator name="solvation model" >
   <i type="logical" name="LSOL"> F  </i>
  </separator>
 </parameters>
 <atominfo>
  <atoms>     250 </atoms>
  <types>       2 </types>
  <array name="atoms" >
   <dimension dim="1">ion</dimension>
   <field type="string">element</field>
   <field type="int">atomtype</field>
   <set>
    <rc><c>Ni</c><c>   1</c></rc>
    <rc><c>Ni</c><c>   1</c></rc>
    <rc><c>Ni</c><c>   1</c></rc>
    <rc><c>Ni</c><c>   1</c></rc>
    <rc><c>Ni</c><c>   1</c></rc>
    <rc><c>Ni</c><c>   1</c></rc>
    <rc><c>Ni</c><c>   1</c></rc>
    <rc><c>Ni</c><c>   1</c></rc>
    <rc><c>Ni</c><c>   1</c></rc>
    <rc><c>Ni</c><c>   1</c></rc>
    <rc><c>Ni</c><c>   1</c></rc>
    <rc><c>Ni</c><c>   1</c></rc>
    <rc><c>Ni</c><c>   1</c></rc>
    <rc><c>Ni</c><c>   1</c></rc>
    <rc><c>Ni</c><c>   1</c></rc>
    <rc><c>Ni</c><c>   1</c></rc>
    <rc><c>Ni</c><c>   1</c></rc>
    <rc><c>Ni</c><c>   1</c></rc>
    <rc><c>Ni</c><c>   1</c></rc>
    <rc><c>Ni</c><c>   1</c></rc>
    <rc><c>Ni</c><c>   1</c></rc>
    <rc><c>Ni</c><c>   1</c></rc>
    <rc><c>Ni</c><c>   1</c></rc>
    <rc><c>Ni</c><c>   1</c></rc>
    <rc><c>Ni</c><c>   1</c></rc>
    <rc><c>Ni</c><c>   1</c></rc>
    <rc><c>Ni</c><c>   1</c></rc>
    <rc><c>Ni</c><c>   1</c></rc>
    <rc><c>Ni</c><c>   1</c></rc>
    <rc><c>Ni</c><c>   1</c></rc>
    <rc><c>Ni</c><c>   1</c></rc>
    <rc><c>Ni</c><c>   1</c></rc>
    <rc><c>Ni</c><c>   1</c></rc>
    <rc><c>Ni</c><c>   1</c></rc>
    <rc><c>Ni</c><c>   1</c></rc>
    <rc><c>Ni</c><c>   1</c></rc>
    <rc><c>Ni</c><c>   1</c></rc>
    <rc><c>Ni</c><c>   1</c></rc>
    <rc><c>Ni</c><c>   1</c></rc>
    <rc><c>Ni</c><c>   1</c></rc>
    <rc><c>Ni</c><c>   1</c></rc>
    <rc><c>Ni</c><c>   1</c></rc>
    <rc><c>Ni</c><c>   1</c></rc>
    <rc><c>Ni</c><c>   1</c></rc>
    <rc><c>Ni</c><c>   1</c></rc>
    <rc><c>Ni</c><c>   1</c></rc>
    <rc><c>Ni</c><c>   1</c></rc>
    <rc><c>Ni</c><c>   1</c></rc>
    <rc><c>Ni</c><c>   1</c></rc>
    <rc><c>Ni</c><c>   1</c></rc>
    <rc><c>Ni</c><c>   1</c></rc>
    <rc><c>Ni</c><c>   1</c></rc>
    <rc><c>Ni</c><c>   1</c></rc>
    <rc><c>Ni</c><c>   1</c></rc>
    <rc><c>Ni</c><c>   1</c></rc>
    <rc><c>Ni</c><c>   1</c></rc>
    <rc><c>Ni</c><c>   1</c></rc>
    <rc><c>Ni</c><c>   1</c></rc>
    <rc><c>Ni</c><c>   1</c></rc>
    <rc><c>Ni</c><c>   1</c></rc>
    <rc><c>Ni</c><c>   1</c></rc>
    <rc><c>Ni</c><c>   1</c></rc>
    <rc><c>Ni</c><c>   1</c></rc>
    <rc><c>Ni</c><c>   1</c></rc>
    <rc><c>Ni</c><c>   1</c></rc>
    <rc><c>Ni</c><c>   1</c></rc>
    <rc><c>Ni</c><c>   1</c></rc>
    <rc><c>Ni</c><c>   1</c></rc>
    <rc><c>Ni</c><c>   1</c></rc>
    <rc><c>Ni</c><c>   1</c></rc>
    <rc><c>Ni</c><c>   1</c></rc>
    <rc><c>Ni</c><c>   1</c></rc>
    <rc><c>Ni</c><c>   1</c></rc>
    <rc><c>Ni</c><c>   1</c></rc>
    <rc><c>Ni</c><c>   1</c></rc>
    <rc><c>Ni</c><c>   1</c></rc>
    <rc><c>Ni</c><c>   1</c></rc>
    <rc><c>Ni</c><c>   1</c></rc>
    <rc><c>Ni</c><c>   1</c></rc>
    <rc><c>Ni</c><c>   1</c></rc>
    <rc><c>Ni</c><c>   1</c></rc>
    <rc><c>Ni</c><c>   1</c></rc>
    <rc><c>Ni</c><c>   1</c></rc>
    <rc><c>Ni</c><c>   1</c></rc>
    <rc><c>Ni</c><c>   1</c></rc>
    <rc><c>Ni</c><c>   1</c></rc>
    <rc><c>Ni</c><c>   1</c></rc>
    <rc><c>Ni</c><c>   1</c></rc>
    <rc><c>Ni</c><c>   1</c></rc>
    <rc><c>Ni</c><c>   1</c></rc>
    <rc><c>Ni</c><c>   1</c></rc>
    <rc><c>Ni</c><c>   1</c></rc>
    <rc><c>Ni</c><c>   1</c></rc>
    <rc><c>Ni</c><c>   1</c></rc>
    <rc><c>Ni</c><c>   1</c></rc>
    <rc><c>Ni</c><c>   1</c></rc>
    <rc><c>Ni</c><c>   1</c></rc>
    <rc><c>Ni</c><c>   1</c></rc>
    <rc><c>Ni</c><c>   1</c></rc>
    <rc><c>Ni</c><c>   1</c></rc>
    <rc><c>Ni</c><c>   1</c></rc>
    <rc><c>Ni</c><c>   1</c></rc>
    <rc><c>Ni</c><c>   1</c></rc>
    <rc><c>Ni</c><c>   1</c></rc>
    <rc><c>Ni</c><c>   1</c></rc>
    <rc><c>Ni</c><c>   1</c></rc>
    <rc><c>Ni</c><c>   1</c></rc>
    <rc><c>Ni</c><c>   1</c></rc>
    <rc><c>Ni</c><c>   1</c></rc>
    <rc><c>Ni</c><c>   1</c></rc>
    <rc><c>Ni</c><c>   1</c></rc>
    <rc><c>Ni</c><c>   1</c></rc>
    <rc><c>Ni</c><c>   1</c></rc>
    <rc><c>Ni</c><c>   1</c></rc>
    <rc><c>Ni</c><c>   1</c></rc>
    <rc><c>Ni</c><c>   1</c></rc>
    <rc><c>Ni</c><c>   1</c></rc>
    <rc><c>Ni</c><c>   1</c></rc>
    <rc><c>Ni</c><c>   1</c></rc>
    <rc><c>Ni</c><c>   1</c></rc>
    <rc><c>Ni</c><c>   1</c></rc>
    <rc><c>Ni</c><c>   1</c></rc>
    <rc><c>Ni</c><c>   1</c></rc>
    <rc><c>Ni</c><c>   1</c></rc>
    <rc><c>Ni</c><c>   1</c></rc>
    <rc><c>Al</c><c>   2</c></rc>
    <rc><c>Al</c><c>   2</c></rc>
    <rc><c>Al</c><c>   2</c></rc>
    <rc><c>Al</c><c>   2</c></rc>
    <rc><c>Al</c><c>   2</c></rc>
    <rc><c>Al</c><c>   2</c></rc>
    <rc><c>Al</c><c>   2</c></rc>
    <rc><c>Al</c><c>   2</c></rc>
    <rc><c>Al</c><c>   2</c></rc>
    <rc><c>Al</c><c>   2</c></rc>
    <rc><c>Al</c><c>   2</c></rc>
    <rc><c>Al</c><c>   2</c></rc>
    <rc><c>Al</c><c>   2</c></rc>
    <rc><c>Al</c><c>   2</c></rc>
    <rc><c>Al</c><c>   2</c></rc>
    <rc><c>Al</c><c>   2</c></rc>
    <rc><c>Al</c><c>   2</c></rc>
    <rc><c>Al</c><c>   2</c></rc>
    <rc><c>Al</c><c>   2</c></rc>
    <rc><c>Al</c><c>   2</c></rc>
    <rc><c>Al</c><c>   2</c></rc>
    <rc><c>Al</c><c>   2</c></rc>
    <rc><c>Al</c><c>   2</c></rc>
    <rc><c>Al</c><c>   2</c></rc>
    <rc><c>Al</c><c>   2</c></rc>
    <rc><c>Al</c><c>   2</c></rc>
    <rc><c>Al</c><c>   2</c></rc>
    <rc><c>Al</c><c>   2</c></rc>
    <rc><c>Al</c><c>   2</c></rc>
    <rc><c>Al</c><c>   2</c></rc>
    <rc><c>Al</c><c>   2</c></rc>
    <rc><c>Al</c><c>   2</c></rc>
    <rc><c>Al</c><c>   2</c></rc>
    <rc><c>Al</c><c>   2</c></rc>
    <rc><c>Al</c><c>   2</c></rc>
    <rc><c>Al</c><c>   2</c></rc>
    <rc><c>Al</c><c>   2</c></rc>
    <rc><c>Al</c><c>   2</c></rc>
    <rc><c>Al</c><c>   2</c></rc>
    <rc><c>Al</c><c>   2</c></rc>
    <rc><c>Al</c><c>   2</c></rc>
    <rc><c>Al</c><c>   2</c></rc>
    <rc><c>Al</c><c>   2</c></rc>
    <rc><c>Al</c><c>   2</c></rc>
    <rc><c>Al</c><c>   2</c></rc>
    <rc><c>Al</c><c>   2</c></rc>
    <rc><c>Al</c><c>   2</c></rc>
    <rc><c>Al</c><c>   2</c></rc>
    <rc><c>Al</c><c>   2</c></rc>
    <rc><c>Al</c><c>   2</c></rc>
    <rc><c>Al</c><c>   2</c></rc>
    <rc><c>Al</c><c>   2</c></rc>
    <rc><c>Al</c><c>   2</c></rc>
    <rc><c>Al</c><c>   2</c></rc>
    <rc><c>Al</c><c>   2</c></rc>
    <rc><c>Al</c><c>   2</c></rc>
    <rc><c>Al</c><c>   2</c></rc>
    <rc><c>Al</c><c>   2</c></rc>
    <rc><c>Al</c><c>   2</c></rc>
    <rc><c>Al</c><c>   2</c></rc>
    <rc><c>Al</c><c>   2</c></rc>
    <rc><c>Al</c><c>   2</c></rc>
    <rc><c>Al</c><c>   2</c></rc>
    <rc><c>Al</c><c>   2</c></rc>
    <rc><c>Al</c><c>   2</c></rc>
    <rc><c>Al</c><c>   2</c></rc>
    <rc><c>Al</c><c>   2</c></rc>
    <rc><c>Al</c><c>   2</c></rc>
    <rc><c>Al</c><c>   2</c></rc>
    <rc><c>Al</c><c>   2</c></rc>
    <rc><c>Al</c><c>   2</c></rc>
    <rc><c>Al</c><c>   2</c></rc>
    <rc><c>Al</c><c>   2</c></rc>
    <rc><c>Al</c><c>   2</c></rc>
    <rc><c>Al</c><c>   2</c></rc>
    <rc><c>Al</c><c>   2</c></rc>
    <rc><c>Al</c><c>   2</c></rc>
    <rc><c>Al</c><c>   2</c></rc>
    <rc><c>Al</c><c>   2</c></rc>
    <rc><c>Al</c><c>   2</c></rc>
    <rc><c>Al</c><c>   2</c></rc>
    <rc><c>Al</c><c>   2</c></rc>
    <rc><c>Al</c><c>   2</c></rc>
    <rc><c>Al</c><c>   2</c></rc>
    <rc><c>Al</c><c>   2</c></rc>
    <rc><c>Al</c><c>   2</c></rc>
    <rc><c>Al</c><c>   2</c></rc>
    <rc><c>Al</c><c>   2</c></rc>
    <rc><c>Al</c><c>   2</c></rc>
    <rc><c>Al</c><c>   2</c></rc>
    <rc><c>Al</c><c>   2</c></rc>
    <rc><c>Al</c><c>   2</c></rc>
    <rc><c>Al</c><c>   2</c></rc>
    <rc><c>Al</c><c>   2</c></rc>
    <rc><c>Al</c><c>   2</c></rc>
    <rc><c>Al</c><c>   2</c></rc>
    <rc><c>Al</c><c>   2</c></rc>
    <rc><c>Al</c><c>   2</c></rc>
    <rc><c>Al</c><c>   2</c></rc>
    <rc><c>Al</c><c>   2</c></rc>
    <rc><c>Al</c><c>   2</c></rc>
    <rc><c>Al</c><c>   2</c></rc>
    <rc><c>Al</c><c>   2</c></rc>
    <rc><c>Al</c><c>   2</c></rc>
    <rc><c>Al</c><c>   2</c></rc>
    <rc><c>Al</c><c>   2</c></rc>
    <rc><c>Al</c><c>   2</c></rc>
    <rc><c>Al</c><c>   2</c></rc>
    <rc><c>Al</c><c>   2</c></rc>
    <rc><c>Al</c><c>   2</c></rc>
    <rc><c>Al</c><c>   2</c></rc>
    <rc><c>Al</c><c>   2</c></rc>
    <rc><c>Al</c><c>   2</c></rc>
    <rc><c>Al</c><c>   2</c></rc>
    <rc><c>Al</c><c>   2</c></rc>
    <rc><c>Al</c><c>   2</c></rc>
    <rc><c>Al</c><c>   2</c></rc>
    <rc><c>Al</c><c>   2</c></rc>
    <rc><c>Al</c><c>   2</c></rc>
    <rc><c>Al</c><c>   2</c></rc>
    <rc><c>Al</c><c>   2</c></rc>
    <rc><c>Al</c><c>   2</c></rc>
    <rc><c>Al</c><c>   2</c></rc>
    <rc><c>Al</c><c>   2</c></rc>
    <rc><c>Al</c><c>   2</c></rc>
   </set>
  </array>
  <array name="atomtypes" >
   <dimension dim="1">type</dimension>
   <field type="int">atomspertype</field>
   <field type="string">element</field>
   <field>mass</field>
   <field>valence</field>
   <field type="string">pseudopotential</field>
   <set>
    <rc><c> 125</c><c>Ni</c><c>     58.69000000</c><c>     10.00000000</c><c>  PAW Ni_GW 31Mar2010                   </c></rc>
    <rc><c> 125</c><c>Al</c><c>     26.98200000</c><c>      3.00000000</c><c>  PAW Al_GW 19Mar2012                   </c></rc>
   </set>
  </array>
 </atominfo>
 <structure name="initialpos" >
  <crystal>
   <varray name="basis" >
    <v>      14.50000000       0.00000000       0.00000000 </v>
    <v>       0.00000000      14.50000000       0.00000000 </v>
    <v>       0.00000000       0.00000000      14.50000000 </v>
   </varray>
   <i name="volume">   3048.62500000 </i>
   <varray name="rec_basis" >
    <v>       0.06896552       0.00000000       0.00000000 </v>
    <v>       0.00000000       0.06896552       0.00000000 </v>
    <v>       0.00000000       0.00000000       0.06896552 </v>
   </varray>
  </crystal>
  <varray name="positions" >
   <v>       0.00000000       0.00000000       0.00000000 </v>
   <v>       0.00000000       0.00000000       0.20000000 </v>
   <v>       0.00000000       0.00000000       0.40000000 </v>
   <v>       0.00000000       0.00000000       0.60000000 </v>
   <v>       0.00000000       0.00000000       0.80000000 </v>
   <v>       0.00000000       0.20000000       0.00000000 </v>
   <v>       0.00000000       0.20000000       0.20000000 </v>
   <v>       0.00000000       0.20000000       0.40000000 </v>
   <v>       0.00000000       0.20000000       0.60000000 </v>
   <v>       0.00000000       0.20000000       0.80000000 </v>
   <v>       0.00000000       0.40000000       0.00000000 </v>
   <v>       0.00000000       0.40000000       0.20000000 </v>
   <v>       0.00000000       0.40000000       0.40000000 </v>
   <v>       0.00000000       0.40000000       0.60000000 </v>
   <v>       0.00000000       0.40000000       0.80000000 </v>
   <v>       0.00000000       0.60000000       0.00000000 </v>
   <v>       0.00000000       0.60000000       0.20000000 </v>
   <v>       0.00000000       0.60000000       0.40000000 </v>
   <v>       0.00000000       0.60000000       0.60000000 </v>
   <v>       0.00000000       0.60000000       0.80000000 </v>
   <v>       0.00000000       0.80000000       0.00000000 </v>
   <v>       0.00000000       0.80000000       0.20000000 </v>
   <v>       0.00000000       0.80000000       0.40000000 </v>
   <v>       0.00000000       0.80000000       0.60000000 </v>
   <v>       0.00000000       0.80000000       0.80000000 </v>
   <v>       0.20000000       0.00000000       0.00000000 </v>
   <v>       0.20000000       0.00000000       0.20000000 </v>
   <v>       0.20000000       0.00000000       0.40000000 </v>
   <v>       0.20000000       0.00000000       0.60000000 </v>
   <v>       0.20000000       0.00000000       0.80000000 </v>
   <v>       0.20000000       0.20000000       0.00000000 </v>
   <v>       0.20000000       0.20000000       0.20000000 </v>
   <v>       0.20000000       0.20000000       0.40000000 </v>
   <v>       0.20000000       0.20000000       0.60000000 </v>
   <v>       0.20000000       0.20000000       0.80000000 </v>
   <v>       0.20000000       0.40000000       0.00000000 </v>
   <v>       0.20000000       0.40000000       0.20000000 </v>
   <v>       0.20000000       0.40000000       0.40000000 </v>
   <v>       0.20000000       0.40000000       0.60000000 </v>
   <v>       0.20000000       0.40000000       0.80000000 </v>
   <v>       0.20000000       0.60000000       0.00000000 </v>
   <v>       0.20000000       0.60000000       0.20000000 </v>
   <v>       0.20000000       0.60000000       0.40000000 </v>
   <v>       0.20000000       0.60000000       0.60000000 </v>
   <v>       0.20000000       0.60000000       0.80000000 </v>
   <v>       0.20000000       0.80000000       0.00000000 </v>
   <v>       0.20000000       0.80000000       0.20000000 </v>
   <v>       0.20000000       0.80000000       0.40000000 </v>
   <v>       0.20000000       0.80000000       0.60000000 </v>
   <v>       0.20000000       0.80000000       0.80000000 </v>
   <v>       0.40000000       0.00000000       0.00000000 </v>
   <v>       0.40000000       0.00000000       0.20000000 </v>
   <v>       0.40000000       0.00000000       0.40000000 </v>
   <v>       0.40000000       0.00000000       0.60000000 </v>
   <v>       0.40000000       0.00000000       0.80000000 </v>
   <v>       0.40000000       0.20000000       0.00000000 </v>
   <v>       0.40000000       0.20000000       0.20000000 </v>
   <v>       0.40000000       0.20000000       0.40000000 </v>
   <v>       0.40000000       0.20000000       0.60000000 </v>
   <v>       0.40000000       0.20000000       0.80000000 </v>
   <v>       0.40000000       0.40000000       0.00000000 </v>
   <v>       0.40000000       0.40000000       0.20000000 </v>
   <v>       0.40000000       0.40000000       0.40000000 </v>
   <v>       0.40000000       0.40000000       0.60000000 </v>
   <v>       0.40000000       0.40000000       0.80000000 </v>
   <v>       0.40000000       0.60000000       0.00000000 </v>
   <v>       0.40000000       0.60000000       0.20000000 </v>
   <v>       0.40000000       0.60000000       0.40000000 </v>
   <v>       0.40000000       0.60000000       0.60000000 </v>
   <v>       0.40000000       0.60000000       0.80000000 </v>
   <v>       0.40000000       0.80000000       0.00000000 </v>
   <v>       0.40000000       0.80000000       0.20000000 </v>
   <v>       0.40000000       0.80000000       0.40000000 </v>
   <v>       0.40000000       0.80000000       0.60000000 </v>
   <v>       0.40000000       0.80000000       0.80000000 </v>
   <v>       0.60000000       0.00000000       0.00000000 </v>
   <v>       0.60000000       0.00000000       0.20000000 </v>
   <v>       0.60000000       0.00000000       0.40000000 </v>
   <v>       0.60000000       0.00000000       0.60000000 </v>
   <v>       0.60000000       0.00000000       0.80000000 </v>
   <v>       0.60000000       0.20000000       0.00000000 </v>
   <v>       0.60000000       0.20000000       0.20000000 </v>
   <v>       0.60000000       0.20000000       0.40000000 </v>
   <v>       0.60000000       0.20000000       0.60000000 </v>
   <v>       0.60000000       0.20000000       0.80000000 </v>
   <v>       0.60000000       0.40000000       0.00000000 </v>
   <v>       0.60000000       0.40000000       0.20000000 </v>
   <v>       0.60000000       0.40000000       0.40000000 </v>
   <v>       0.60000000       0.40000000       0.60000000 </v>
   <v>       0.60000000       0.40000000       0.80000000 </v>
   <v>       0.60000000       0.60000000       0.00000000 </v>
   <v>       0.60000000       0.60000000       0.20000000 </v>
   <v>       0.60000000       0.60000000       0.40000000 </v>
   <v>       0.60000000       0.60000000       0.60000000 </v>
   <v>       0.60000000       0.60000000       0.80000000 </v>
   <v>       0.60000000       0.80000000       0.00000000 </v>
   <v>       0.60000000       0.80000000       0.20000000 </v>
   <v>       0.60000000       0.80000000       0.40000000 </v>
   <v>       0.60000000       0.80000000       0.60000000 </v>
   <v>       0.60000000       0.80000000       0.80000000 </v>
   <v>       0.80000000       0.00000000       0.00000000 </v>
   <v>       0.80000000       0.00000000       0.20000000 </v>
   <v>       0.80000000       0.00000000       0.40000000 </v>
   <v>       0.80000000       0.00000000       0.60000000 </v>
   <v>       0.80000000       0.00000000       0.80000000 </v>
   <v>       0.80000000       0.20000000       0.00000000 </v>
   <v>       0.80000000       0.20000000       0.20000000 </v>
   <v>       0.80000000       0.20000000       0.40000000 </v>
   <v>       0.80000000       0.20000000       0.60000000 </v>
   <v>       0.80000000       0.20000000       0.80000000 </v>
   <v>       0.80000000       0.40000000       0.00000000 </v>
   <v>       0.80000000       0.40000000       0.20000000 </v>
   <v>       0.80000000       0.40000000       0.40000000 </v>
   <v>       0.80000000       0.40000000       0.60000000 </v>
   <v>       0.80000000       0.40000000       0.80000000 </v>
   <v>       0.80000000       0.60000000       0.00000000 </v>
   <v>       0.80000000       0.60000000       0.20000000 </v>
   <v>       0.80000000       0.60000000       0.40000000 </v>
   <v>       0.80000000       0.60000000       0.60000000 </v>
   <v>       0.80000000       0.60000000       0.80000000 </v>
   <v>       0.80000000       0.80000000       0.00000000 </v>
   <v>       0.80000000       0.80000000       0.20000000 </v>
   <v>       0.80000000       0.80000000       0.40000000 </v>
   <v>       0.80000000       0.80000000       0.60000000 </v>
   <v>       0.80000000       0.80000000       0.80000000 </v>
   <v>       0.10000000       0.10000000       0.10000000 </v>
   <v>       0.10000000       0.10000000       0.30000000 </v>
   <v>       0.10000000       0.10000000       0.50000000 </v>
   <v>       0.10000000       0.10000000       0.70000000 </v>
   <v>       0.10000000       0.10000000       0.90000000 </v>
   <v>       0.10000000       0.30000000       0.10000000 </v>
   <v>       0.10000000       0.30000000       0.30000000 </v>
   <v>       0.10000000       0.30000000       0.50000000 </v>
   <v>       0.10000000       0.30000000       0.70000000 </v>
   <v>       0.10000000       0.30000000       0.90000000 </v>
   <v>       0.10000000       0.50000000       0.10000000 </v>
   <v>       0.10000000       0.50000000       0.30000000 </v>
   <v>       0.10000000       0.50000000       0.50000000 </v>
   <v>       0.10000000       0.50000000       0.70000000 </v>
   <v>       0.10000000       0.50000000       0.90000000 </v>
   <v>       0.10000000       0.70000000       0.10000000 </v>
   <v>       0.10000000       0.70000000       0.30000000 </v>
   <v>       0.10000000       0.70000000       0.50000000 </v>
   <v>       0.10000000       0.70000000       0.70000000 </v>
   <v>       0.10000000       0.70000000       0.90000000 </v>
   <v>       0.10000000       0.90000000       0.10000000 </v>
   <v>       0.10000000       0.90000000       0.30000000 </v>
   <v>       0.10000000       0.90000000       0.50000000 </v>
   <v>       0.10000000       0.90000000       0.70000000 </v>
   <v>       0.10000000       0.90000000       0.90000000 </v>
   <v>       0.30000000       0.10000000       0.10000000 </v>
   <v>       0.30000000       0.10000000       0.30000000 </v>
   <v>       0.30000000       0.10000000       0.50000000 </v>
   <v>       0.30000000       0.10000000       0.70000000 </v>
   <v>       0.30000000       0.10000000       0.90000000 </v>
   <v>       0.30000000       0.30000000       0.10000000 </v>
   <v>       0.30000000       0.30000000       0.30000000 </v>
   <v>       0.30000000       0.30000000       0.50000000 </v>
   <v>       0.30000000       0.30000000       0.70000000 </v>
   <v>       0.30000000       0.30000000       0.90000000 </v>
   <v>       0.30000000       0.50000000       0.10000000 </v>
   <v>       0.30000000       0.50000000       0.30000000 </v>
   <v>       0.30000000       0.50000000       0.50000000 </v>
   <v>       0.30000000       0.50000000       0.70000000 </v>
   <v>       0.30000000       0.50000000       0.90000000 </v>
   <v>       0.30000000       0.70000000       0.10000000 </v>
   <v>       0.30000000       0.70000000       0.30000000 </v>
   <v>       0.30000000       0.70000000       0.50000000 </v>
   <v>       0.30000000       0.70000000       0.70000000 </v>
   <v>       0.30000000       0.70000000       0.90000000 </v>
   <v>       0.30000000       0.90000000       0.10000000 </v>
   <v>       0.30000000       0.90000000       0.30000000 </v>
   <v>       0.30000000       0.90000000       0.50000000 </v>
   <v>       0.30000000       0.90000000       0.70000000 </v>
   <v>       0.30000000       0.90000000       0.90000000 </v>
   <v>       0.50000000       0.10000000       0.10000000 </v>
   <v>       0.50000000       0.10000000       0.30000000 </v>
   <v>       0.50000000       0.10000000       0.50000000 </v>
   <v>       0.50000000       0.10000000       0.70000000 </v>
   <v>       0.50000000       0.10000000       0.90000000 </v>
   <v>       0.50000000       0.30000000       0.10000000 </v>
   <v>       0.50000000       0.30000000       0.30000000 </v>
   <v>       0.50000000       0.30000000       0.50000000 </v>
   <v>       0.50000000       0.30000000       0.70000000 </v>
   <v>       0.50000000       0.30000000       0.90000000 </v>
   <v>       0.50000000       0.50000000       0.10000000 </v>
   <v>       0.50000000       0.50000000       0.30000000 </v>
   <v>       0.50000000       0.50000000       0.50000000 </v>
   <v>       0.50000000       0.50000000       0.70000000 </v>
   <v>       0.50000000       0.50000000       0.90000000 </v>
   <v>       0.50000000       0.70000000       0.10000000 </v>
   <v>       0.50000000       0.70000000       0.30000000 </v>
   <v>       0.50000000       0.70000000       0.50000000 </v>
   <v>       0.50000000       0.70000000       0.70000000 </v>
   <v>       0.50000000       0.70000000       0.90000000 </v>
   <v>       0.50000000       0.90000000       0.10000000 </v>
   <v>       0.50000000       0.90000000       0.30000000 </v>
   <v>       0.50000000       0.90000000       0.50000000 </v>
   <v>       0.50000000       0.90000000       0.70000000 </v>
   <v>       0.50000000       0.90000000       0.90000000 </v>
   <v>       0.70000000       0.10000000       0.10000000 </v>
   <v>       0.70000000       0.10000000       0.30000000 </v>
   <v>       0.70000000       0.10000000       0.50000000 </v>
   <v>       0.70000000       0.10000000       0.70000000 </v>
   <v>       0.70000000       0.10000000       0.90000000 </v>
   <v>       0.70000000       0.30000000       0.10000000 </v>
   <v>       0.70000000       0.30000000       0.30000000 </v>
   <v>       0.70000000       0.30000000       0.50000000 </v>
   <v>       0.70000000       0.30000000       0.70000000 </v>
   <v>       0.70000000       0.30000000       0.90000000 </v>
   <v>       0.70000000       0.50000000       0.10000000 </v>
   <v>       0.70000000       0.50000000       0.30000000 </v>
   <v>       0.70000000       0.50000000       0.50000000 </v>
   <v>       0.70000000       0.50000000       0.70000000 </v>
   <v>       0.70000000       0.50000000       0.90000000 </v>
   <v>       0.70000000       0.70000000       0.10000000 </v>
   <v>       0.70000000       0.70000000       0.30000000 </v>
   <v>       0.70000000       0.70000000       0.50000000 </v>
   <v>       0.70000000       0.70000000       0.70000000 </v>
   <v>       0.70000000       0.70000000       0.90000000 </v>
   <v>       0.70000000       0.90000000       0.10000000 </v>
   <v>       0.70000000       0.90000000       0.30000000 </v>
   <v>       0.70000000       0.90000000       0.50000000 </v>
   <v>       0.70000000       0.90000000       0.70000000 </v>
   <v>       0.70000000       0.90000000       0.90000000 </v>
   <v>       0.90000000       0.10000000       0.10000000 </v>
   <v>       0.90000000       0.10000000       0.30000000 </v>
   <v>       0.90000000       0.10000000       0.50000000 </v>
   <v>       0.90000000       0.10000000       0.70000000 </v>
   <v>       0.90000000       0.10000000       0.90000000 </v>
   <v>       0.90000000       0.30000000       0.10000000 </v>
   <v>       0.90000000       0.30000000       0.30000000 </v>
   <v>       0.90000000       0.30000000       0.50000000 </v>
   <v>       0.90000000       0.30000000       0.70000000 </v>
   <v>       0.90000000       0.30000000       0.90000000 </v>
   <v>       0.90000000       0.50000000       0.10000000 </v>
   <v>       0.90000000       0.50000000       0.30000000 </v>
   <v>       0.90000000       0.50000000       0.50000000 </v>
   <v>       0.90000000       0.50000000       0.70000000 </v>
   <v>       0.90000000       0.50000000       0.90000000 </v>
   <v>       0.90000000       0.70000000       0.10000000 </v>
   <v>       0.90000000       0.70000000       0.30000000 </v>
   <v>       0.90000000       0.70000000       0.50000000 </v>
   <v>       0.90000000       0.70000000       0.70000000 </v>
   <v>       0.90000000       0.70000000       0.90000000 </v>
   <v>       0.90000000       0.90000000       0.10000000 </v>
   <v>       0.90000000       0.90000000       0.30000000 </v>
   <v>       0.90000000       0.90000000       0.50000000 </v>
   <v>       0.90000000       0.90000000       0.70000000 </v>
   <v>       0.90000000       0.90000000       0.90000000 </v>
  </varray>
 </structure>
 <calculation>
  <scstep>
   <time name="dav">   11.40   11.41</time>
   <time name="total">   11.89   11.92</time>
   <energy>
    <i name="alphaZ">   8533.26444299 </i>
    <i name="ewald">-110909.92503774 </i>
    <i name="hartreedc"> -41000.45329717 </i>
    <i name="XCdc">  -1757.22452340 </i>
    <i name="pawpsdc"> 127296.47253345 </i>
    <i name="pawaedc">-133005.13491229 </i>
    <i name="eentropy">     -0.10144539 </i>
    <i name="bandstr">  21111.66566327 </i>
    <i name="atom"> 141394.56442925 </i>
    <i name="e_fr_energy">  11663.12785297 </i>
    <i name="e_wo_entrp">  11663.22929836 </i>
    <i name="e_0_energy">  11663.17857566 </i>
   </energy>
  </scstep>
  <scstep>
   <time name="dav">   11.26   11.26</time>
   <time name="total">   11.26   11.26</time>
   <energy>
    <i name="e_fr_energy">   -367.51302956 </i>
    <i name="e_wo_entrp">   -367.42194338 </i>
    <i name="e_0_energy">   -367.46748647 </i>
   </energy>
  </scstep>
  <scstep>
   <time name="dav">   15.91   15.91</time>
   <time name="total">   15.91   15.92</time>
   <energy>
    <i name="e_fr_energy">  -1380.83549090 </i>
    <i name="e_wo_entrp">  -1380.63699130 </i>
    <i name="e_0_energy">  -1380.73624110 </i>
   </energy>
  </scstep>
  <scstep>
   <time name="dav">   15.06   15.06</time>
   <time name="total">   15.06   15.06</time>
   <energy>
    <i name="e_fr_energy">  -1481.25032756 </i>
    <i name="e_wo_entrp">  -1481.05349881 </i>
    <i name="e_0_energy">  -1481.15191318 </i>
   </energy>
  </scstep>
  <scstep>
   <time name="dav">   17.48   17.48</time>
   <time name="total">   18.69   18.71</time>
   <energy>
    <i name="e_fr_energy">  -1489.86470960 </i>
    <i name="e_wo_entrp">  -1489.67419095 </i>
    <i name="e_0_energy">  -1489.76945028 </i>
   </energy>
  </scstep>
  <scstep>
   <time name="dav">   14.15   14.15</time>
   <time name="total">   15.82   15.83</time>
   <energy>
    <i name="e_fr_energy">  -1732.48341509 </i>
    <i name="e_wo_entrp">  -1732.42336221 </i>
    <i name="e_0_energy">  -1732.45338865 </i>
   </energy>
  </scstep>
  <scstep>
   <time name="dav">   13.08   13.09</time>
   <time name="total">   14.77   14.78</time>
   <energy>
    <i name="e_fr_energy">  -1341.35858140 </i>
    <i name="e_wo_entrp">  -1341.08209593 </i>
    <i name="e_0_energy">  -1341.22033867 </i>
   </energy>
  </scstep>
  <scstep>
   <time name="dav">   16.60   16.60</time>
   <time name="total">   18.30   18.31</time>
   <energy>
    <i name="e_fr_energy">  -1324.46037528 </i>
    <i name="e_wo_entrp">  -1324.37503160 </i>
    <i name="e_0_energy">  -1324.41770344 </i>
   </energy>
  </scstep>
  <scstep>
   <time name="dav">   13.18   13.18</time>
   <time name="total">   14.86   14.87</time>
   <energy>
    <i name="e_fr_energy">  -1320.11689190 </i>
    <i name="e_wo_entrp">  -1320.00664673 </i>
    <i name="e_0_energy">  -1320.06176932 </i>
   </energy>
  </scstep>
  <scstep>
   <time name="dav">   14.81   14.81</time>
   <time name="total">   16.51   16.52</time>
   <energy>
    <i name="e_fr_energy">  -1320.18430942 </i>
    <i name="e_wo_entrp">  -1320.07778209 </i>
    <i name="e_0_energy">  -1320.13104575 </i>
   </energy>
  </scstep>
  <scstep>
   <time name="dav">   15.55   15.55</time>
   <time name="total">   17.26   17.27</time>
   <energy>
    <i name="e_fr_energy">  -1320.18607340 </i>
    <i name="e_wo_entrp">  -1320.07911178 </i>
    <i name="e_0_energy">  -1320.13259259 </i>
   </energy>
  </scstep>
  <scstep>
   <time name="dav">   14.01   14.01</time>
   <time name="total">   15.71   15.71</time>
   <energy>
    <i name="e_fr_energy">  -1320.17761547 </i>
    <i name="e_wo_entrp">  -1320.07257674 </i>
    <i name="e_0_energy">  -1320.12509611 </i>
   </energy>
  </scstep>
  <scstep>
   <time name="dav">   13.00   13.01</time>
   <time name="total">   14.71   14.72</time>
   <energy>
    <i name="e_fr_energy">  -1320.17790998 </i>
    <i name="e_wo_entrp">  -1320.07262311 </i>
    <i name="e_0_energy">  -1320.12526654 </i>
   </energy>
  </scstep>
  <scstep>
   <time name="dav">   16.40   16.40</time>
   <time name="total">   18.12   18.12</time>
   <energy>
    <i name="e_fr_energy">  -1320.17758275 </i>
    <i name="e_wo_entrp">  -1320.07258896 </i>
    <i name="e_0_energy">  -1320.12508586 </i>
   </energy>
  </scstep>
  <scstep>
   <time name="dav">   16.47   16.47</time>
   <time name="total">   18.19   18.19</time>
   <energy>
    <i name="e_fr_energy">  -1320.17756813 </i>
    <i name="e_wo_entrp">  -1320.07266532 </i>
    <i name="e_0_energy">  -1320.12511672 </i>
   </energy>
  </scstep>
  <scstep>
   <time name="dav">   13.75   13.75</time>
   <time name="total">   15.47   15.47</time>
   <energy>
    <i name="e_fr_energy">  -1320.17757246 </i>
    <i name="e_wo_entrp">  -1320.07268233 </i>
    <i name="e_0_energy">  -1320.12512740 </i>
   </energy>
  </scstep>
  <scstep>
   <time name="dav">    9.79    9.79</time>
   <time name="total">   11.52   11.52</time>
   <energy>
    <i name="e_fr_energy">  -1320.17757426 </i>
    <i name="e_wo_entrp">  -1320.07267850 </i>
    <i name="e_0_energy">  -1320.12512638 </i>
   </energy>
  </scstep>
  <scstep>
   <time name="dav">    8.20    8.20</time>
   <time name="total">    9.92    9.92</time>
   <energy>
    <i name="e_fr_energy">  -1320.17757472 </i>
    <i name="e_wo_entrp">  -1320.07267760 </i>
    <i name="e_0_energy">  -1320.12512616 </i>
   </energy>
  </scstep>
  <scstep>
   <time name="dav">    8.06    8.06</time>
   <time name="total">    9.78    9.78</time>
   <energy>
    <i name="e_fr_energy">  -1320.17757492 </i>
    <i name="e_wo_entrp">  -1320.07267781 </i>
    <i name="e_0_energy">  -1320.12512637 </i>
   </energy>
  </scstep>
  <scstep>
   <time name="dav">    8.01    8.01</time>
   <time name="total">    8.50    8.50</time>
   <energy>
    <i name="alphaZ">   8533.26444299 </i>
    <i name="ewald">-110909.92503774 </i>
    <i name="hartreedc"> -38702.93047383 </i>
    <i name="XCdc">  -1833.62566854 </i>
    <i name="pawpsdc"> 147619.90449517 </i>
    <i name="pawaedc">-153422.45875780 </i>
    <i name="eentropy">     -0.10489629 </i>
    <i name="bandstr">   6001.13389184 </i>
    <i name="atom"> 141394.56442925 </i>
    <i name="e_fr_energy">  -1320.17757495 </i>
    <i name="e_wo_entrp">  -1320.07267867 </i>
    <i name="e_0_energy">  -1320.12512681 </i>
   </energy>
  </scstep>
  <structure>
   <crystal>
    <varray name="basis" >
     <v>      14.50000000       0.00000000       0.00000000 </v>
     <v>       0.00000000      14.50000000       0.00000000 </v>
     <v>       0.00000000       0.00000000      14.50000000 </v>
    </varray>
    <i name="volume">   3048.62500000 </i>
    <varray name="rec_basis" >
     <v>       0.06896552       0.00000000       0.00000000 </v>
     <v>       0.00000000       0.06896552       0.00000000 </v>
     <v>       0.00000000       0.00000000       0.06896552 </v>
    </varray>
   </crystal>
   <varray name="positions" >
    <v>       0.00000000       0.00000000       0.00000000 </v>
    <v>       0.00000000       0.00000000       0.20000000 </v>
    <v>       0.00000000       0.00000000       0.40000000 </v>
    <v>       0.00000000       0.00000000       0.60000000 </v>
    <v>       0.00000000       0.00000000       0.80000000 </v>
    <v>       0.00000000       0.20000000       0.00000000 </v>
    <v>       0.00000000       0.20000000       0.20000000 </v>
    <v>       0.00000000       0.20000000       0.40000000 </v>
    <v>       0.00000000       0.20000000       0.60000000 </v>
    <v>       0.00000000       0.20000000       0.80000000 </v>
    <v>       0.00000000       0.40000000       0.00000000 </v>
    <v>       0.00000000       0.40000000       0.20000000 </v>
    <v>       0.00000000       0.40000000       0.40000000 </v>
    <v>       0.00000000       0.40000000       0.60000000 </v>
    <v>       0.00000000       0.40000000       0.80000000 </v>
    <v>       0.00000000       0.60000000       0.00000000 </v>
    <v>       0.00000000       0.60000000       0.20000000 </v>
    <v>       0.00000000       0.60000000       0.40000000 </v>
    <v>       0.00000000       0.60000000       0.60000000 </v>
    <v>       0.00000000       0.60000000       0.80000000 </v>
    <v>       0.00000000       0.80000000       0.00000000 </v>
    <v>       0.00000000       0.80000000       0.20000000 </v>
    <v>       0.00000000       0.80000000       0.40000000 </v>
    <v>       0.00000000       0.80000000       0.60000000 </v>
    <v>       0.00000000       0.80000000       0.80000000 </v>
    <v>       0.20000000       0.00000000       0.00000000 </v>
    <v>       0.20000000       0.00000000       0.20000000 </v>
    <v>       0.20000000       0.00000000       0.40000000 </v>
    <v>       0.20000000       0.00000000       0.60000000 </v>
    <v>       0.20000000       0.00000000       0.80000000 </v>
    <v>       0.20000000       0.20000000       0.00000000 </v>
    <v>       0.20000000       0.20000000       0.20000000 </v>
    <v>       0.20000000       0.20000000       0.40000000 </v>
    <v>       0.20000000       0.20000000       0.60000000 </v>
    <v>       0.20000000       0.20000000       0.80000000 </v>
    <v>       0.20000000       0.40000000       0.00000000 </v>
    <v>       0.20000000       0.40000000       0.20000000 </v>
    <v>       0.20000000       0.40000000       0.40000000 </v>
    <v>       0.20000000       0.40000000       0.60000000 </v>
    <v>       0.20000000       0.40000000       0.80000000 </v>
    <v>       0.20000000       0.60000000       0.00000000 </v>
    <v>       0.20000000       0.60000000       0.20000000 </v>
    <v>       0.20000000       0.60000000       0.40000000 </v>
    <v>       0.20000000       0.60000000       0.60000000 </v>
    <v>       0.20000000       0.60000000       0.80000000 </v>
    <v>       0.20000000       0.80000000       0.00000000 </v>
    <v>       0.20000000       0.80000000       0.20000000 </v>
    <v>       0.20000000       0.80000000       0.40000000 </v>
    <v>       0.20000000       0.80000000       0.60000000 </v>
    <v>       0.20000000       0.80000000       0.80000000 </v>
    <v>       0.40000000       0.00000000       0.00000000 </v>
    <v>       0.40000000       0.00000000       0.20000000 </v>
    <v>       0.40000000       0.00000000       0.40000000 </v>
    <v>       0.40000000       0.00000000       0.60000000 </v>
    <v>       0.40000000       0.00000000       0.80000000 </v>
    <v>       0.40000000       0.20000000       0.00000000 </v>
    <v>       0.40000000       0.20000000       0.20000000 </v>
    <v>       0.40000000       0.20000000       0.40000000 </v>
    <v>       0.40000000       0.20000000       0.60000000 </v>
    <v>       0.40000000       0.20000000       0.80000000 </v>
    <v>       0.40000000       0.40000000       0.00000000 </v>
    <v>       0.40000000       0.40000000       0.20000000 </v>
    <v>       0.40000000       0.40000000       0.40000000 </v>
    <v>       0.40000000       0.40000000       0.60000000 </v>
    <v>       0.40000000       0.40000000       0.80000000 </v>
    <v>       0.40000000       0.60000000       0.00000000 </v>
    <v>       0.40000000       0.60000000       0.20000000 </v>
    <v>       0.40000000       0.60000000       0.40000000 </v>
    <v>       0.40000000       0.60000000       0.60000000 </v>
    <v>       0.40000000       0.60000000       0.80000000 </v>
    <v>       0.40000000       0.80000000       0.00000000 </v>
    <v>       0.40000000       0.80000000       0.20000000 </v>
    <v>       0.40000000       0.80000000       0.40000000 </v>
    <v>       0.40000000       0.80000000       0.60000000 </v>
    <v>       0.40000000       0.80000000       0.80000000 </v>
    <v>       0.60000000       0.00000000       0.00000000 </v>
    <v>       0.60000000       0.00000000       0.20000000 </v>
    <v>       0.60000000       0.00000000       0.40000000 </v>
    <v>       0.60000000       0.00000000       0.60000000 </v>
    <v>       0.60000000       0.00000000       0.80000000 </v>
    <v>       0.60000000       0.20000000       0.00000000 </v>
    <v>       0.60000000       0.20000000       0.20000000 </v>
    <v>       0.60000000       0.20000000       0.40000000 </v>
    <v>       0.60000000       0.20000000       0.60000000 </v>
    <v>       0.60000000       0.20000000       0.80000000 </v>
    <v>       0.60000000       0.40000000       0.00000000 </v>
    <v>       0.60000000       0.40000000       0.20000000 </v>
    <v>       0.60000000       0.40000000       0.40000000 </v>
    <v>       0.60000000       0.40000000       0.60000000 </v>
    <v>       0.60000000       0.40000000       0.80000000 </v>
    <v>       0.60000000       0.60000000       0.00000000 </v>
    <v>       0.60000000       0.60000000       0.20000000 </v>
    <v>       0.60000000       0.60000000       0.40000000 </v>
    <v>       0.60000000       0.60000000       0.60000000 </v>
    <v>       0.60000000       0.60000000       0.80000000 </v>
    <v>       0.60000000       0.80000000       0.00000000 </v>
    <v>       0.60000000       0.80000000       0.20000000 </v>
    <v>       0.60000000       0.80000000       0.40000000 </v>
    <v>       0.60000000       0.80000000       0.60000000 </v>
    <v>       0.60000000       0.80000000       0.80000000 </v>
    <v>       0.80000000       0.00000000       0.00000000 </v>
    <v>       0.80000000       0.00000000       0.20000000 </v>
    <v>       0.80000000       0.00000000       0.40000000 </v>
    <v>       0.80000000       0.00000000       0.60000000 </v>
    <v>       0.80000000       0.00000000       0.80000000 </v>
    <v>       0.80000000       0.20000000       0.00000000 </v>
    <v>       0.80000000       0.20000000       0.20000000 </v>
    <v>       0.80000000       0.20000000       0.40000000 </v>
    <v>       0.80000000       0.20000000       0.60000000 </v>
    <v>       0.80000000       0.20000000       0.80000000 </v>
    <v>       0.80000000       0.40000000       0.00000000 </v>
    <v>       0.80000000       0.40000000       0.20000000 </v>
    <v>       0.80000000       0.40000000       0.40000000 </v>
    <v>       0.80000000       0.40000000       0.60000000 </v>
    <v>       0.80000000       0.40000000       0.80000000 </v>
    <v>       0.80000000       0.60000000       0.00000000 </v>
    <v>       0.80000000       0.60000000       0.20000000 </v>
    <v>       0.80000000       0.60000000       0.40000000 </v>
    <v>       0.80000000       0.60000000       0.60000000 </v>
    <v>       0.80000000       0.60000000       0.80000000 </v>
    <v>       0.80000000       0.80000000       0.00000000 </v>
    <v>       0.80000000       0.80000000       0.20000000 </v>
    <v>       0.80000000       0.80000000       0.40000000 </v>
    <v>       0.80000000       0.80000000       0.60000000 </v>
    <v>       0.80000000       0.80000000       0.80000000 </v>
    <v>       0.10000000       0.10000000       0.10000000 </v>
    <v>       0.10000000       0.10000000       0.30000000 </v>
    <v>       0.10000000       0.10000000       0.50000000 </v>
    <v>       0.10000000       0.10000000       0.70000000 </v>
    <v>       0.10000000       0.10000000       0.90000000 </v>
    <v>       0.10000000       0.30000000       0.10000000 </v>
    <v>       0.10000000       0.30000000       0.30000000 </v>
    <v>       0.10000000       0.30000000       0.50000000 </v>
    <v>       0.10000000       0.30000000       0.70000000 </v>
    <v>       0.10000000       0.30000000       0.90000000 </v>
    <v>       0.10000000       0.50000000       0.10000000 </v>
    <v>       0.10000000       0.50000000       0.30000000 </v>
    <v>       0.10000000       0.50000000       0.50000000 </v>
    <v>       0.10000000       0.50000000       0.70000000 </v>
    <v>       0.10000000       0.50000000       0.90000000 </v>
    <v>       0.10000000       0.70000000       0.10000000 </v>
    <v>       0.10000000       0.70000000       0.30000000 </v>
    <v>       0.10000000       0.70000000       0.50000000 </v>
    <v>       0.10000000       0.70000000       0.70000000 </v>
    <v>       0.10000000       0.70000000       0.90000000 </v>
    <v>       0.10000000       0.90000000       0.10000000 </v>
    <v>       0.10000000       0.90000000       0.30000000 </v>
    <v>       0.10000000       0.90000000       0.50000000 </v>
    <v>       0.10000000       0.90000000       0.70000000 </v>
    <v>       0.10000000       0.90000000       0.90000000 </v>
    <v>       0.30000000       0.10000000       0.10000000 </v>
    <v>       0.30000000       0.10000000       0.30000000 </v>
    <v>       0.30000000       0.10000000       0.50000000 </v>
    <v>       0.30000000       0.10000000       0.70000000 </v>
    <v>       0.30000000       0.10000000       0.90000000 </v>
    <v>       0.30000000       0.30000000       0.10000000 </v>
    <v>       0.30000000       0.30000000       0.30000000 </v>
    <v>       0.30000000       0.30000000       0.50000000 </v>
    <v>       0.30000000       0.30000000       0.70000000 </v>
    <v>       0.30000000       0.30000000       0.90000000 </v>
    <v>       0.30000000       0.50000000       0.10000000 </v>
    <v>       0.30000000       0.50000000       0.30000000 </v>
    <v>       0.30000000       0.50000000       0.50000000 </v>
    <v>       0.30000000       0.50000000       0.70000000 </v>
    <v>       0.30000000       0.50000000       0.90000000 </v>
    <v>       0.30000000       0.70000000       0.10000000 </v>
    <v>       0.30000000       0.70000000       0.30000000 </v>
    <v>       0.30000000       0.70000000       0.50000000 </v>
    <v>       0.30000000       0.70000000       0.70000000 </v>
    <v>       0.30000000       0.70000000       0.90000000 </v>
    <v>       0.30000000       0.90000000       0.10000000 </v>
    <v>       0.30000000       0.90000000       0.30000000 </v>
    <v>       0.30000000       0.90000000       0.50000000 </v>
    <v>       0.30000000       0.90000000       0.70000000 </v>
    <v>       0.30000000       0.90000000       0.90000000 </v>
    <v>       0.50000000       0.10000000       0.10000000 </v>
    <v>       0.50000000       0.10000000       0.30000000 </v>
    <v>       0.50000000       0.10000000       0.50000000 </v>
    <v>       0.50000000       0.10000000       0.70000000 </v>
    <v>       0.50000000       0.10000000       0.90000000 </v>
    <v>       0.50000000       0.30000000       0.10000000 </v>
    <v>       0.50000000       0.30000000       0.30000000 </v>
    <v>       0.50000000       0.30000000       0.50000000 </v>
    <v>       0.50000000       0.30000000       0.70000000 </v>
    <v>       0.50000000       0.30000000       0.90000000 </v>
    <v>       0.50000000       0.50000000       0.10000000 </v>
    <v>       0.50000000       0.50000000       0.30000000 </v>
    <v>       0.50000000       0.50000000       0.50000000 </v>
    <v>       0.50000000       0.50000000       0.70000000 </v>
    <v>       0.50000000       0.50000000       0.90000000 </v>
    <v>       0.50000000       0.70000000       0.10000000 </v>
    <v>       0.50000000       0.70000000       0.30000000 </v>
    <v>       0.50000000       0.70000000       0.50000000 </v>
    <v>       0.50000000       0.70000000       0.70000000 </v>
    <v>       0.50000000       0.70000000       0.90000000 </v>
    <v>       0.50000000       0.90000000       0.10000000 </v>
    <v>       0.50000000       0.90000000       0.30000000 </v>
    <v>       0.50000000       0.90000000       0.50000000 </v>
    <v>       0.50000000       0.90000000       0.70000000 </v>
    <v>       0.50000000       0.90000000       0.90000000 </v>
    <v>       0.70000000       0.10000000       0.10000000 </v>
    <v>       0.70000000       0.10000000       0.30000000 </v>
    <v>       0.70000000       0.10000000       0.50000000 </v>
    <v>       0.70000000       0.10000000       0.70000000 </v>
    <v>       0.70000000       0.10000000       0.90000000 </v>
    <v>       0.70000000       0.30000000       0.10000000 </v>
    <v>       0.70000000       0.30000000       0.30000000 </v>
    <v>       0.70000000       0.30000000       0.50000000 </v>
    <v>       0.70000000       0.30000000       0.70000000 </v>
    <v>       0.70000000       0.30000000       0.90000000 </v>
    <v>       0.70000000       0.50000000       0.10000000 </v>
    <v>       0.70000000       0.50000000       0.30000000 </v>
    <v>       0.70000000       0.50000000       0.50000000 </v>
    <v>       0.70000000       0.50000000       0.70000000 </v>
    <v>       0.70000000       0.50000000       0.90000000 </v>
    <v>       0.70000000       0.70000000       0.10000000 </v>
    <v>       0.70000000       0.70000000       0.30000000 </v>
    <v>       0.70000000       0.70000000       0.50000000 </v>
    <v>       0.70000000       0.70000000       0.70000000 </v>
    <v>       0.70000000       0.70000000       0.90000000 </v>
    <v>       0.70000000       0.90000000       0.10000000 </v>
    <v>       0.70000000       0.90000000       0.30000000 </v>
    <v>       0.70000000       0.90000000       0.50000000 </v>
    <v>       0.70000000       0.90000000       0.70000000 </v>
    <v>       0.70000000       0.90000000       0.90000000 </v>
    <v>       0.90000000       0.10000000       0.10000000 </v>
    <v>       0.90000000       0.10000000       0.30000000 </v>
    <v>       0.90000000       0.10000000       0.50000000 </v>
    <v>       0.90000000       0.10000000       0.70000000 </v>
    <v>       0.90000000       0.10000000       0.90000000 </v>
    <v>       0.90000000       0.30000000       0.10000000 </v>
    <v>       0.90000000       0.30000000       0.30000000 </v>
    <v>       0.90000000       0.30000000       0.50000000 </v>
    <v>       0.90000000       0.30000000       0.70000000 </v>
    <v>       0.90000000       0.30000000       0.90000000 </v>
    <v>       0.90000000       0.50000000       0.10000000 </v>
    <v>       0.90000000       0.50000000       0.30000000 </v>
    <v>       0.90000000       0.50000000       0.50000000 </v>
    <v>       0.90000000       0.50000000       0.70000000 </v>
    <v>       0.90000000       0.50000000       0.90000000 </v>
    <v>       0.90000000       0.70000000       0.10000000 </v>
    <v>       0.90000000       0.70000000       0.30000000 </v>
    <v>       0.90000000       0.70000000       0.50000000 </v>
    <v>       0.90000000       0.70000000       0.70000000 </v>
    <v>       0.90000000       0.70000000       0.90000000 </v>
    <v>       0.90000000       0.90000000       0.10000000 </v>
    <v>       0.90000000       0.90000000       0.30000000 </v>
    <v>       0.90000000       0.90000000       0.50000000 </v>
    <v>       0.90000000       0.90000000       0.70000000 </v>
    <v>       0.90000000       0.90000000       0.90000000 </v>
   </varray>
  </structure>
  <varray name="forces" >
   <v>      -0.00000000      -0.00000000      -0.00000000 </v>
   <v>      -0.00000000      -0.00000000       0.00000000 </v>
   <v>      -0.00000000      -0.00000000      -0.00000000 </v>
   <v>       0.00000000      -0.00000000       0.00000000 </v>
   <v>       0.00000000      -0.00000000      -0.00000000 </v>
   <v>       0.00000000       0.00000000       0.00000000 </v>
   <v>       0.00000000       0.00000000      -0.00000000 </v>
   <v>       0.00000000       0.00000000      -0.00000000 </v>
   <v>      -0.00000000       0.00000000       0.00000000 </v>
   <v>       0.00000000       0.00000000       0.00000000 </v>
   <v>       0.00000000      -0.00000000       0.00000000 </v>
   <v>       0.00000000      -0.00000000       0.00000000 </v>
   <v>       0.00000000      -0.00000000       0.00000000 </v>
   <v>      -0.00000000       0.00000000       0.00000000 </v>
   <v>      -0.00000000      -0.00000000      -0.00000000 </v>
   <v>       0.00000000       0.00000000       0.00000000 </v>
   <v>       0.00000000       0.00000000      -0.00000000 </v>
   <v>       0.00000000       0.00000000       0.00000000 </v>
   <v>      -0.00000000       0.00000000      -0.00000000 </v>
   <v>      -0.00000000      -0.00000000       0.00000000 </v>
   <v>       0.00000000      -0.00000000       0.00000000 </v>
   <v>       0.00000000      -0.00000000      -0.00000000 </v>
   <v>      -0.00000000      -0.00000000       0.00000000 </v>
   <v>      -0.00000000      -0.00000000      -0.00000000 </v>
   <v>       0.00000000      -0.00000000       0.00000000 </v>
   <v>       0.00000000      -0.00000000      -0.00000000 </v>
   <v>      -0.00000000      -0.00000000       0.00000000 </v>
   <v>      -0.00000000      -0.00000000      -0.00000000 </v>
   <v>      -0.00000000      -0.00000000       0.00000000 </v>
   <v>      -0.00000000      -0.00000000      -0.00000000 </v>
   <v>      -0.00000000       0.00000000       0.00000000 </v>
   <v>       0.00000000       0.00000000       0.00000000 </v>
   <v>      -0.00000000       0.00000000      -0.00000000 </v>
   <v>       0.00000000       0.00000000       0.00000000 </v>
   <v>      -0.00000000      -0.00000000       0.00000000 </v>
   <v>       0.00000000       0.00000000       0.00000000 </v>
   <v>       0.00000000       0.00000000      -0.00000000 </v>
   <v>      -0.00000000      -0.00000000      -0.00000000 </v>
   <v>      -0.00000000       0.00000000       0.00000000 </v>
   <v>      -0.00000000      -0.00000000      -0.00000000 </v>
   <v>      -0.00000000      -0.00000000       0.00000000 </v>
   <v>      -0.00000000       0.00000000      -0.00000000 </v>
   <v>      -0.00000000      -0.00000000       0.00000000 </v>
   <v>      -0.00000000      -0.00000000      -0.00000000 </v>
   <v>       0.00000000       0.00000000       0.00000000 </v>
   <v>       0.00000000      -0.00000000       0.00000000 </v>
   <v>      -0.00000000      -0.00000000      -0.00000000 </v>
   <v>      -0.00000000      -0.00000000       0.00000000 </v>
   <v>      -0.00000000       0.00000000      -0.00000000 </v>
   <v>      -0.00000000      -0.00000000       0.00000000 </v>
   <v>      -0.00000000      -0.00000000      -0.00000000 </v>
   <v>      -0.00000000       0.00000000       0.00000000 </v>
   <v>      -0.00000000       0.00000000      -0.00000000 </v>
   <v>       0.00000000       0.00000000       0.00000000 </v>
   <v>       0.00000000       0.00000000      -0.00000000 </v>
   <v>      -0.00000000       0.00000000      -0.00000000 </v>
   <v>      -0.00000000       0.00000000       0.00000000 </v>
   <v>       0.00000000       0.00000000      -0.00000000 </v>
   <v>      -0.00000000       0.00000000       0.00000000 </v>
   <v>      -0.00000000      -0.00000000      -0.00000000 </v>
   <v>      -0.00000000       0.00000000       0.00000000 </v>
   <v>      -0.00000000      -0.00000000       0.00000000 </v>
   <v>      -0.00000000       0.00000000       0.00000000 </v>
   <v>       0.00000000      -0.00000000      -0.00000000 </v>
   <v>      -0.00000000       0.00000000       0.00000000 </v>
   <v>      -0.00000000       0.00000000       0.00000000 </v>
   <v>       0.00000000       0.00000000      -0.00000000 </v>
   <v>       0.00000000      -0.00000000       0.00000000 </v>
   <v>       0.00000000       0.00000000      -0.00000000 </v>
   <v>       0.00000000      -0.00000000       0.00000000 </v>
   <v>      -0.00000000      -0.00000000       0.00000000 </v>
   <v>       0.00000000       0.00000000      -0.00000000 </v>
   <v>       0.00000000       0.00000000       0.00000000 </v>
   <v>       0.00000000       0.00000000      -0.00000000 </v>
   <v>       0.00000000       0.00000000       0.00000000 </v>
   <v>      -0.00000000      -0.00000000      -0.00000000 </v>
   <v>      -0.00000000      -0.00000000       0.00000000 </v>
   <v>      -0.00000000      -0.00000000      -0.00000000 </v>
   <v>       0.00000000      -0.00000000       0.00000000 </v>
   <v>       0.00000000      -0.00000000      -0.00000000 </v>
   <v>      -0.00000000       0.00000000      -0.00000000 </v>
   <v>      -0.00000000       0.00000000       0.00000000 </v>
   <v>      -0.00000000       0.00000000      -0.00000000 </v>
   <v>       0.00000000       0.00000000       0.00000000 </v>
   <v>       0.00000000       0.00000000       0.00000000 </v>
   <v>      -0.00000000      -0.00000000       0.00000000 </v>
   <v>       0.00000000      -0.00000000      -0.00000000 </v>
   <v>      -0.00000000      -0.00000000      -0.00000000 </v>
   <v>       0.00000000      -0.00000000      -0.00000000 </v>
   <v>       0.00000000      -0.00000000      -0.00000000 </v>
   <v>      -0.00000000      -0.00000000      -0.00000000 </v>
   <v>      -0.00000000      -0.00000000      -0.00000000 </v>
   <v>      -0.00000000       0.00000000       0.00000000 </v>
   <v>      -0.00000000       0.00000000      -0.00000000 </v>
   <v>       0.00000000       0.00000000       0.00000000 </v>
   <v>       0.00000000       0.00000000       0.00000000 </v>
   <v>      -0.00000000      -0.00000000      -0.00000000 </v>
   <v>      -0.00000000      -0.00000000       0.00000000 </v>
   <v>       0.00000000      -0.00000000      -0.00000000 </v>
   <v>      -0.00000000      -0.00000000       0.00000000 </v>
   <v>       0.00000000      -0.00000000      -0.00000000 </v>
   <v>       0.00000000      -0.00000000       0.00000000 </v>
   <v>       0.00000000      -0.00000000      -0.00000000 </v>
   <v>      -0.00000000      -0.00000000       0.00000000 </v>
   <v>      -0.00000000      -0.00000000      -0.00000000 </v>
   <v>       0.00000000       0.00000000      -0.00000000 </v>
   <v>       0.00000000       0.00000000       0.00000000 </v>
   <v>      -0.00000000       0.00000000      -0.00000000 </v>
   <v>      -0.00000000       0.00000000       0.00000000 </v>
   <v>       0.00000000       0.00000000      -0.00000000 </v>
   <v>       0.00000000       0.00000000       0.00000000 </v>
   <v>       0.00000000      -0.00000000      -0.00000000 </v>
   <v>       0.00000000       0.00000000      -0.00000000 </v>
   <v>      -0.00000000       0.00000000      -0.00000000 </v>
   <v>      -0.00000000      -0.00000000      -0.00000000 </v>
   <v>       0.00000000       0.00000000       0.00000000 </v>
   <v>       0.00000000       0.00000000      -0.00000000 </v>
   <v>      -0.00000000       0.00000000       0.00000000 </v>
   <v>      -0.00000000      -0.00000000      -0.00000000 </v>
   <v>      -0.00000000       0.00000000       0.00000000 </v>
   <v>       0.00000000      -0.00000000       0.00000000 </v>
   <v>       0.00000000      -0.00000000      -0.00000000 </v>
   <v>      -0.00000000      -0.00000000       0.00000000 </v>
   <v>      -0.00000000      -0.00000000      -0.00000000 </v>
   <v>       0.00000000       0.00000000       0.00000000 </v>
   <v>       0.00000000      -0.00000000       0.00000000 </v>
   <v>      -0.00000000      -0.00000000      -0.00000000 </v>
   <v>      -0.00000000      -0.00000000      -0.00000000 </v>
   <v>      -0.00000000       0.00000000      -0.00000000 </v>
   <v>      -0.00000000      -0.00000000      -0.00000000 </v>
   <v>      -0.00000000       0.00000000      -0.00000000 </v>
   <v>      -0.00000000      -0.00000000       0.00000000 </v>
   <v>      -0.00000000      -0.00000000       0.00000000 </v>
   <v>      -0.00000000      -0.00000000      -0.00000000 </v>
   <v>      -0.00000000       0.00000000       0.00000000 </v>
   <v>      -0.00000000       0.00000000       0.00000000 </v>
   <v>      -0.00000000      -0.00000000      -0.00000000 </v>
   <v>      -0.00000000      -0.00000000      -0.00000000 </v>
   <v>      -0.00000000       0.00000000       0.00000000 </v>
   <v>      -0.00000000      -0.00000000      -0.00000000 </v>
   <v>      -0.00000000      -0.00000000      -0.00000000 </v>
   <v>      -0.00000000      -0.00000000       0.00000000 </v>
   <v>      -0.00000000      -0.00000000       0.00000000 </v>
   <v>      -0.00000000       0.00000000      -0.00000000 </v>
   <v>      -0.00000000       0.00000000       0.00000000 </v>
   <v>       0.00000000      -0.00000000      -0.00000000 </v>
   <v>      -0.00000000      -0.00000000      -0.00000000 </v>
   <v>      -0.00000000       0.00000000       0.00000000 </v>
   <v>      -0.00000000       0.00000000      -0.00000000 </v>
   <v>      -0.00000000       0.00000000       0.00000000 </v>
   <v>       0.00000000       0.00000000       0.00000000 </v>
   <v>       0.00000000      -0.00000000      -0.00000000 </v>
   <v>       0.00000000       0.00000000      -0.00000000 </v>
   <v>       0.00000000       0.00000000       0.00000000 </v>
   <v>       0.00000000       0.00000000      -0.00000000 </v>
   <v>       0.00000000      -0.00000000      -0.00000000 </v>
   <v>       0.00000000      -0.00000000      -0.00000000 </v>
   <v>       0.00000000      -0.00000000       0.00000000 </v>
   <v>       0.00000000       0.00000000      -0.00000000 </v>
   <v>      -0.00000000      -0.00000000      -0.00000000 </v>
   <v>       0.00000000      -0.00000000       0.00000000 </v>
   <v>       0.00000000      -0.00000000       0.00000000 </v>
   <v>       0.00000000      -0.00000000       0.00000000 </v>
   <v>       0.00000000       0.00000000      -0.00000000 </v>
   <v>      -0.00000000      -0.00000000      -0.00000000 </v>
   <v>       0.00000000       0.00000000      -0.00000000 </v>
   <v>       0.00000000       0.00000000       0.00000000 </v>
   <v>       0.00000000       0.00000000       0.00000000 </v>
   <v>       0.00000000       0.00000000       0.00000000 </v>
   <v>       0.00000000       0.00000000       0.00000000 </v>
   <v>       0.00000000       0.00000000       0.00000000 </v>
   <v>       0.00000000      -0.00000000      -0.00000000 </v>
   <v>       0.00000000       0.00000000      -0.00000000 </v>
   <v>       0.00000000      -0.00000000      -0.00000000 </v>
   <v>      -0.00000000      -0.00000000       0.00000000 </v>
   <v>       0.00000000      -0.00000000       0.00000000 </v>
   <v>       0.00000000      -0.00000000      -0.00000000 </v>
   <v>       0.00000000      -0.00000000      -0.00000000 </v>
[...]
       <r>     7.7462     9.0896  1699.6733 </r>
       <r>     7.8018    50.8362  1702.5004 </r>
       <r>     7.8574    51.9562  1705.3899 </r>
       <r>     7.9130    55.6359  1708.4839 </r>
       <r>     7.9686    44.7528  1710.9728 </r>
       <r>     8.0242    10.1761  1711.5387 </r>
       <r>     8.0798    27.6570  1713.0768 </r>
       <r>     8.1355    19.5196  1714.1623 </r>
       <r>     8.1911     6.5075  1714.5242 </r>
       <r>     8.2467    21.0971  1715.6975 </r>
       <r>     8.3023    21.7567  1716.9075 </r>
       <r>     8.3579    16.2512  1717.8112 </r>
       <r>     8.4135    11.2068  1718.4345 </r>
       <r>     8.4691    29.7791  1720.0906 </r>
       <r>     8.5247    19.2007  1721.1584 </r>
       <r>     8.5804    53.0080  1724.1063 </r>
       <r>     8.6360    99.4842  1729.6389 </r>
       <r>     8.6916    89.2755  1734.6038 </r>
       <r>     8.7472   156.1940  1743.2902 </r>
       <r>     8.8028   221.3267  1755.5988 </r>
       <r>     8.8584   139.9364  1763.3810 </r>
       <r>     8.9140   108.8924  1769.4369 </r>
       <r>     8.9696   106.4333  1775.3559 </r>
       <r>     9.0253    37.2892  1777.4297 </r>
       <r>     9.0809    81.6571  1781.9709 </r>
       <r>     9.1365   138.6487  1789.6815 </r>
       <r>     9.1921   114.9147  1796.0722 </r>
       <r>     9.2477    93.1748  1801.2540 </r>
       <r>     9.3033    78.3750  1805.6126 </r>
       <r>     9.3589    39.3042  1807.7984 </r>
       <r>     9.4146    48.3928  1810.4897 </r>
       <r>     9.4702    75.1149  1814.6670 </r>
       <r>     9.5258   137.2616  1822.3006 </r>
       <r>     9.5814   233.5122  1835.2868 </r>
       <r>     9.6370   184.0889  1845.5245 </r>
       <r>     9.6926    54.0297  1848.5293 </r>
       <r>     9.7482    34.2014  1850.4313 </r>
       <r>     9.8038    99.9640  1855.9906 </r>
       <r>     9.8595   223.1182  1868.3988 </r>
       <r>     9.9151   169.1776  1877.8073 </r>
       <r>     9.9707    77.6249  1882.1242 </r>
       <r>    10.0263    15.3078  1882.9755 </r>
       <r>    10.0819     1.6041  1883.0648 </r>
       <r>    10.1375    33.4771  1884.9265 </r>
       <r>    10.1931   124.6516  1891.8587 </r>
       <r>    10.2487   132.2018  1899.2109 </r>
       <r>    10.3044   180.1616  1909.2302 </r>
       <r>    10.3600    88.4181  1914.1473 </r>
       <r>    10.4156    27.9825  1915.7035 </r>
       <r>    10.4712    65.7331  1919.3591 </r>
       <r>    10.5268    91.2240  1924.4324 </r>
       <r>    10.5824    88.0290  1929.3279 </r>
       <r>    10.6380    87.8238  1934.2120 </r>
       <r>    10.6936    92.4511  1939.3535 </r>
       <r>    10.7493    56.8254  1942.5137 </r>
       <r>    10.8049    43.3804  1944.9262 </r>
       <r>    10.8605    19.5765  1946.0149 </r>
       <r>    10.9161    35.9441  1948.0139 </r>
       <r>    10.9717    31.4403  1949.7624 </r>
       <r>    11.0273     4.1951  1949.9957 </r>
       <r>    11.0829     0.0775  1950.0000 </r>
       <r>    11.1385     0.0002  1950.0000 </r>
       <r>    11.1942     0.0000  1950.0000 </r>
       <r>    11.2498     0.0000  1950.0000 </r>
       <r>    11.3054     0.0000  1950.0000 </r>
       <r>    11.3610     0.0000  1950.0000 </r>
       <r>    11.4166     0.0000  1950.0000 </r>
       <r>    11.4722     0.0000  1950.0000 </r>
       <r>    11.5278     0.0000  1950.0000 </r>
       <r>    11.5835     0.0000  1950.0000 </r>
       <r>    11.6391     0.0000  1950.0000 </r>
       <r>    11.6947     0.0000  1950.0000 </r>
      </set>
     </set>
    </array>
   </total>
  </dos>
 </calculation>
 <structure name="finalpos" >
  <crystal>
   <varray name="basis" >
    <v>      14.50000000       0.00000000       0.00000000 </v>
    <v>       0.00000000      14.50000000       0.00000000 </v>
    <v>       0.00000000       0.00000000      14.50000000 </v>
   </varray>
   <i name="volume">   3048.62500000 </i>
   <varray name="rec_basis" >
    <v>       0.06896552       0.00000000       0.00000000 </v>
    <v>       0.00000000       0.06896552       0.00000000 </v>
    <v>       0.00000000       0.00000000       0.06896552 </v>
   </varray>
  </crystal>
  <varray name="positions" >
   <v>       0.00000000       0.00000000       0.00000000 </v>
   <v>       0.00000000       0.00000000       0.20000000 </v>
   <v>       0.00000000       0.00000000       0.40000000 </v>
   <v>       0.00000000       0.00000000       0.60000000 </v>
   <v>       0.00000000       0.00000000       0.80000000 </v>
   <v>       0.00000000       0.20000000       0.00000000 </v>
   <v>       0.00000000       0.20000000       0.20000000 </v>
   <v>       0.00000000       0.20000000       0.40000000 </v>
   <v>       0.00000000       0.20000000       0.60000000 </v>
   <v>       0.00000000       0.20000000       0.80000000 </v>
   <v>       0.00000000       0.40000000       0.00000000 </v>
   <v>       0.00000000       0.40000000       0.20000000 </v>
   <v>       0.00000000       0.40000000       0.40000000 </v>
   <v>       0.00000000       0.40000000       0.60000000 </v>
   <v>       0.00000000       0.40000000       0.80000000 </v>
   <v>       0.00000000       0.60000000       0.00000000 </v>
   <v>       0.00000000       0.60000000       0.20000000 </v>
   <v>       0.00000000       0.60000000       0.40000000 </v>
   <v>       0.00000000       0.60000000       0.60000000 </v>
   <v>       0.00000000       0.60000000       0.80000000 </v>
   <v>       0.00000000       0.80000000       0.00000000 </v>
   <v>       0.00000000       0.80000000       0.20000000 </v>
   <v>       0.00000000       0.80000000       0.40000000 </v>
   <v>       0.00000000       0.80000000       0.60000000 </v>
   <v>       0.00000000       0.80000000       0.80000000 </v>
   <v>       0.20000000       0.00000000       0.00000000 </v>
   <v>       0.20000000       0.00000000       0.20000000 </v>
   <v>       0.20000000       0.00000000       0.40000000 </v>
   <v>       0.20000000       0.00000000       0.60000000 </v>
   <v>       0.20000000       0.00000000       0.80000000 </v>
   <v>       0.20000000       0.20000000       0.00000000 </v>
   <v>       0.20000000       0.20000000       0.20000000 </v>
   <v>       0.20000000       0.20000000       0.40000000 </v>
   <v>       0.20000000       0.20000000       0.60000000 </v>
   <v>       0.20000000       0.20000000       0.80000000 </v>
   <v>       0.20000000       0.40000000       0.00000000 </v>
   <v>       0.20000000       0.40000000       0.20000000 </v>
   <v>       0.20000000       0.40000000       0.40000000 </v>
   <v>       0.20000000       0.40000000       0.60000000 </v>
   <v>       0.20000000       0.40000000       0.80000000 </v>
   <v>       0.20000000       0.60000000       0.00000000 </v>
   <v>       0.20000000       0.60000000       0.20000000 </v>
   <v>       0.20000000       0.60000000       0.40000000 </v>
   <v>       0.20000000       0.60000000       0.60000000 </v>
   <v>       0.20000000       0.60000000       0.80000000 </v>
   <v>       0.20000000       0.80000000       0.00000000 </v>
   <v>       0.20000000       0.80000000       0.20000000 </v>
   <v>       0.20000000       0.80000000       0.40000000 </v>
   <v>       0.20000000       0.80000000       0.60000000 </v>
   <v>       0.20000000       0.80000000       0.80000000 </v>
   <v>       0.40000000       0.00000000       0.00000000 </v>
   <v>       0.40000000       0.00000000       0.20000000 </v>
   <v>       0.40000000       0.00000000       0.40000000 </v>
   <v>       0.40000000       0.00000000       0.60000000 </v>
   <v>       0.40000000       0.00000000       0.80000000 </v>
   <v>       0.40000000       0.20000000       0.00000000 </v>
   <v>       0.40000000       0.20000000       0.20000000 </v>
   <v>       0.40000000       0.20000000       0.40000000 </v>
   <v>       0.40000000       0.20000000       0.60000000 </v>
   <v>       0.40000000       0.20000000       0.80000000 </v>
   <v>       0.40000000       0.40000000       0.00000000 </v>
   <v>       0.40000000       0.40000000       0.20000000 </v>
   <v>       0.40000000       0.40000000       0.40000000 </v>
   <v>       0.40000000       0.40000000       0.60000000 </v>
   <v>       0.40000000       0.40000000       0.80000000 </v>
   <v>       0.40000000       0.60000000       0.00000000 </v>
   <v>       0.40000000       0.60000000       0.20000000 </v>
   <v>       0.40000000       0.60000000       0.40000000 </v>
   <v>       0.40000000       0.60000000       0.60000000 </v>
   <v>       0.40000000       0.60000000       0.80000000 </v>
   <v>       0.40000000       0.80000000       0.00000000 </v>
   <v>       0.40000000       0.80000000       0.20000000 </v>
   <v>       0.40000000       0.80000000       0.40000000 </v>
   <v>       0.40000000       0.80000000       0.60000000 </v>
   <v>       0.40000000       0.80000000       0.80000000 </v>
   <v>       0.60000000       0.00000000       0.00000000 </v>
   <v>       0.60000000       0.00000000       0.20000000 </v>
   <v>       0.60000000       0.00000000       0.40000000 </v>
   <v>       0.60000000       0.00000000       0.60000000 </v>
   <v>       0.60000000       0.00000000       0.80000000 </v>
   <v>       0.60000000       0.20000000       0.00000000 </v>
   <v>       0.60000000       0.20000000       0.20000000 </v>
   <v>       0.60000000       0.20000000       0.40000000 </v>
   <v>       0.60000000       0.20000000       0.60000000 </v>
   <v>       0.60000000       0.20000000       0.80000000 </v>
   <v>       0.60000000       0.40000000       0.00000000 </v>
   <v>       0.60000000       0.40000000       0.20000000 </v>
   <v>       0.60000000       0.40000000       0.40000000 </v>
   <v>       0.60000000       0.40000000       0.60000000 </v>
   <v>       0.60000000       0.40000000       0.80000000 </v>
   <v>       0.60000000       0.60000000       0.00000000 </v>
   <v>       0.60000000       0.60000000       0.20000000 </v>
   <v>       0.60000000       0.60000000       0.40000000 </v>
   <v>       0.60000000       0.60000000       0.60000000 </v>
   <v>       0.60000000       0.60000000       0.80000000 </v>
   <v>       0.60000000       0.80000000       0.00000000 </v>
   <v>       0.60000000       0.80000000       0.20000000 </v>
   <v>       0.60000000       0.80000000       0.40000000 </v>
   <v>       0.60000000       0.80000000       0.60000000 </v>
   <v>       0.60000000       0.80000000       0.80000000 </v>
   <v>       0.80000000       0.00000000       0.00000000 </v>
   <v>       0.80000000       0.00000000       0.20000000 </v>
   <v>       0.80000000       0.00000000       0.40000000 </v>
   <v>       0.80000000       0.00000000       0.60000000 </v>
   <v>       0.80000000       0.00000000       0.80000000 </v>
   <v>       0.80000000       0.20000000       0.00000000 </v>
   <v>       0.80000000       0.20000000       0.20000000 </v>
   <v>       0.80000000       0.20000000       0.40000000 </v>
   <v>       0.80000000       0.20000000       0.60000000 </v>
   <v>       0.80000000       0.20000000       0.80000000 </v>
   <v>       0.80000000       0.40000000       0.00000000 </v>
   <v>       0.80000000       0.40000000       0.20000000 </v>
   <v>       0.80000000       0.40000000       0.40000000 </v>
   <v>       0.80000000       0.40000000       0.60000000 </v>
   <v>       0.80000000       0.40000000       0.80000000 </v>
   <v>       0.80000000       0.60000000       0.00000000 </v>
   <v>       0.80000000       0.60000000       0.20000000 </v>
   <v>       0.80000000       0.60000000       0.40000000 </v>
   <v>       0.80000000       0.60000000       0.60000000 </v>
   <v>       0.80000000       0.60000000       0.80000000 </v>
   <v>       0.80000000       0.80000000       0.00000000 </v>
   <v>       0.80000000       0.80000000       0.20000000 </v>
   <v>       0.80000000       0.80000000       0.40000000 </v>
   <v>       0.80000000       0.80000000       0.60000000 </v>
   <v>       0.80000000       0.80000000       0.80000000 </v>
   <v>       0.10000000       0.10000000       0.10000000 </v>
   <v>       0.10000000       0.10000000       0.30000000 </v>
   <v>       0.10000000       0.10000000       0.50000000 </v>
   <v>       0.10000000       0.10000000       0.70000000 </v>
   <v>       0.10000000       0.10000000       0.90000000 </v>
   <v>       0.10000000       0.30000000       0.10000000 </v>
   <v>       0.10000000       0.30000000       0.30000000 </v>
   <v>       0.10000000       0.30000000       0.50000000 </v>
   <v>       0.10000000       0.30000000       0.70000000 </v>
   <v>       0.10000000       0.30000000       0.90000000 </v>
   <v>       0.10000000       0.50000000       0.10000000 </v>
   <v>       0.10000000       0.50000000       0.30000000 </v>
   <v>       0.10000000       0.50000000       0.50000000 </v>
   <v>       0.10000000       0.50000000       0.70000000 </v>
   <v>       0.10000000       0.50000000       0.90000000 </v>
   <v>       0.10000000       0.70000000       0.10000000 </v>
   <v>       0.10000000       0.70000000       0.30000000 </v>
   <v>       0.10000000       0.70000000       0.50000000 </v>
   <v>       0.10000000       0.70000000       0.70000000 </v>
   <v>       0.10000000       0.70000000       0.90000000 </v>
   <v>       0.10000000       0.90000000       0.10000000 </v>
   <v>       0.10000000       0.90000000       0.30000000 </v>
   <v>       0.10000000       0.90000000       0.50000000 </v>
   <v>       0.10000000       0.90000000       0.70000000 </v>
   <v>       0.10000000       0.90000000       0.90000000 </v>
   <v>       0.30000000       0.10000000       0.10000000 </v>
   <v>       0.30000000       0.10000000       0.30000000 </v>
   <v>       0.30000000       0.10000000       0.50000000 </v>
   <v>       0.30000000       0.10000000       0.70000000 </v>
   <v>       0.30000000       0.10000000       0.90000000 </v>
   <v>       0.30000000       0.30000000       0.10000000 </v>
   <v>       0.30000000       0.30000000       0.30000000 </v>
   <v>       0.30000000       0.30000000       0.50000000 </v>
   <v>       0.30000000       0.30000000       0.70000000 </v>
   <v>       0.30000000       0.30000000       0.90000000 </v>
   <v>       0.30000000       0.50000000       0.10000000 </v>
   <v>       0.30000000       0.50000000       0.30000000 </v>
   <v>       0.30000000       0.50000000       0.50000000 </v>
   <v>       0.30000000       0.50000000       0.70000000 </v>
   <v>       0.30000000       0.50000000       0.90000000 </v>
   <v>       0.30000000       0.70000000       0.10000000 </v>
   <v>       0.30000000       0.70000000       0.30000000 </v>
   <v>       0.30000000       0.70000000       0.50000000 </v>
   <v>       0.30000000       0.70000000       0.70000000 </v>
   <v>       0.30000000       0.70000000       0.90000000 </v>
   <v>       0.30000000       0.90000000       0.10000000 </v>
   <v>       0.30000000       0.90000000       0.30000000 </v>
   <v>       0.30000000       0.90000000       0.50000000 </v>
   <v>       0.30000000       0.90000000       0.70000000 </v>
   <v>       0.30000000       0.90000000       0.90000000 </v>
   <v>       0.50000000       0.10000000       0.10000000 </v>
   <v>       0.50000000       0.10000000       0.30000000 </v>
   <v>       0.50000000       0.10000000       0.50000000 </v>
   <v>       0.50000000       0.10000000       0.70000000 </v>
   <v>       0.50000000       0.10000000       0.90000000 </v>
   <v>       0.50000000       0.30000000       0.10000000 </v>
   <v>       0.50000000       0.30000000       0.30000000 </v>
   <v>       0.50000000       0.30000000       0.50000000 </v>
   <v>       0.50000000       0.30000000       0.70000000 </v>
   <v>       0.50000000       0.30000000       0.90000000 </v>
   <v>       0.50000000       0.50000000       0.10000000 </v>
   <v>       0.50000000       0.50000000       0.30000000 </v>
   <v>       0.50000000       0.50000000       0.50000000 </v>
   <v>       0.50000000       0.50000000       0.70000000 </v>
   <v>       0.50000000       0.50000000       0.90000000 </v>
   <v>       0.50000000       0.70000000       0.10000000 </v>
   <v>       0.50000000       0.70000000       0.30000000 </v>
   <v>       0.50000000       0.70000000       0.50000000 </v>
   <v>       0.50000000       0.70000000       0.70000000 </v>
   <v>       0.50000000       0.70000000       0.90000000 </v>
   <v>       0.50000000       0.90000000       0.10000000 </v>
   <v>       0.50000000       0.90000000       0.30000000 </v>
   <v>       0.50000000       0.90000000       0.50000000 </v>
   <v>       0.50000000       0.90000000       0.70000000 </v>
   <v>       0.50000000       0.90000000       0.90000000 </v>
   <v>       0.70000000       0.10000000       0.10000000 </v>
   <v>       0.70000000       0.10000000       0.30000000 </v>
   <v>       0.70000000       0.10000000       0.50000000 </v>
   <v>       0.70000000       0.10000000       0.70000000 </v>
   <v>       0.70000000       0.10000000       0.90000000 </v>
   <v>       0.70000000       0.30000000       0.10000000 </v>
   <v>       0.70000000       0.30000000       0.30000000 </v>
   <v>       0.70000000       0.30000000       0.50000000 </v>
   <v>       0.70000000       0.30000000       0.70000000 </v>
   <v>       0.70000000       0.30000000       0.90000000 </v>
   <v>       0.70000000       0.50000000       0.10000000 </v>
   <v>       0.70000000       0.50000000       0.30000000 </v>
   <v>       0.70000000       0.50000000       0.50000000 </v>
   <v>       0.70000000       0.50000000       0.70000000 </v>
   <v>       0.70000000       0.50000000       0.90000000 </v>
   <v>       0.70000000       0.70000000       0.10000000 </v>
   <v>       0.70000000       0.70000000       0.30000000 </v>
   <v>       0.70000000       0.70000000       0.50000000 </v>
   <v>       0.70000000       0.70000000       0.70000000 </v>
   <v>       0.70000000       0.70000000       0.90000000 </v>
   <v>       0.70000000       0.90000000       0.10000000 </v>
   <v>       0.70000000       0.90000000       0.30000000 </v>
   <v>       0.70000000       0.90000000       0.50000000 </v>
   <v>       0.70000000       0.90000000       0.70000000 </v>
   <v>       0.70000000       0.90000000       0.90000000 </v>
   <v>       0.90000000       0.10000000       0.10000000 </v>
   <v>       0.90000000       0.10000000       0.30000000 </v>
   <v>       0.90000000       0.10000000       0.50000000 </v>
   <v>       0.90000000       0.10000000       0.70000000 </v>
   <v>       0.90000000       0.10000000       0.90000000 </v>
   <v>       0.90000000       0.30000000       0.10000000 </v>
   <v>       0.90000000       0.30000000       0.30000000 </v>
   <v>       0.90000000       0.30000000       0.50000000 </v>
   <v>       0.90000000       0.30000000       0.70000000 </v>
   <v>       0.90000000       0.30000000       0.90000000 </v>
   <v>       0.90000000       0.50000000       0.10000000 </v>
   <v>       0.90000000       0.50000000       0.30000000 </v>
   <v>       0.90000000       0.50000000       0.50000000 </v>
   <v>       0.90000000       0.50000000       0.70000000 </v>
   <v>       0.90000000       0.50000000       0.90000000 </v>
   <v>       0.90000000       0.70000000       0.10000000 </v>
   <v>       0.90000000       0.70000000       0.30000000 </v>
   <v>       0.90000000       0.70000000       0.50000000 </v>
   <v>       0.90000000       0.70000000       0.70000000 </v>
   <v>       0.90000000       0.70000000       0.90000000 </v>
   <v>       0.90000000       0.90000000       0.10000000 </v>
   <v>       0.90000000       0.90000000       0.30000000 </v>
   <v>       0.90000000       0.90000000       0.50000000 </v>
   <v>       0.90000000       0.90000000       0.70000000 </v>
   <v>       0.90000000       0.90000000       0.90000000 </v>
  </varray>
 </structure>
</modeling>
