 250 250   0   0
  0.4685622E+01  0.1054150E-08  0.1054150E-08  0.1054150E-08  0.5000000E-15
   1.0000000000000000E-004
  CAR 
 NiAl                                    
     30.62014115    -14.14031233  301     16.67205168      1.00000000
    -14.140  0.0000E+00  0.0000E+00
    -13.991  0.0000E+00  0.0000E+00
    -13.842  0.0000E+00  0.0000E+00
    -13.693  0.0000E+00  0.0000E+00
    -13.544  0.0000E+00  0.0000E+00
    -13.394  0.0000E+00  0.0000E+00
    -13.245  0.0000E+00  0.0000E+00
    -13.096  0.0000E+00  0.0000E+00
    -12.947  0.0000E+00  0.0000E+00
    -12.797  0.0000E+00  0.0000E+00
    -12.648  0.0000E+00  0.0000E+00
    -12.499  0.0000E+00  0.0000E+00
    -12.350  0.4190E-11  0.6251E-12
    -12.201  0.6068E-02  0.9053E-03
    -12.051  0.1565E+01  0.2344E+00
    -11.902  0.1059E+01  0.3923E+00
    -11.753  0.9082E+01  0.1747E+01
    -11.604  0.1244E+02  0.3603E+01
    -11.455  0.7870E+01  0.4777E+01
    -11.305  0.1293E+02  0.6706E+01
    -11.156  0.3137E+01  0.7174E+01
    -11.007  0.7445E+01  0.8285E+01
    -10.858  0.3819E+02  0.1398E+02
    -10.709  0.2034E+02  0.1702E+02
    -10.559  0.2167E+02  0.2025E+02
    -10.410  0.1592E-01  0.2025E+02
    -10.261  0.1713E+02  0.2281E+02
    -10.112  0.1960E+02  0.2573E+02
     -9.963  0.3485E+02  0.3093E+02
     -9.813  0.3882E+02  0.3672E+02
     -9.664  0.3840E+02  0.4245E+02
     -9.515  0.1295E+02  0.4439E+02
     -9.366  0.3688E+02  0.4989E+02
     -9.217  0.6045E+02  0.5891E+02
     -9.067  0.2577E+02  0.6275E+02
     -8.918  0.9941E+01  0.6424E+02
     -8.769  0.5781E+02  0.7286E+02
     -8.620  0.8393E+02  0.8538E+02
     -8.471  0.7571E+02  0.9668E+02
     -8.321  0.9919E+02  0.1115E+03
     -8.172  0.3089E+02  0.1161E+03
     -8.023  0.1007E+03  0.1311E+03
     -7.874  0.1397E+03  0.1520E+03
     -7.725  0.4034E+02  0.1580E+03
     -7.575  0.7404E+02  0.1690E+03
     -7.426  0.1004E+03  0.1840E+03
     -7.277  0.8910E+02  0.1973E+03
     -7.128  0.4728E+02  0.2044E+03
     -6.979  0.1991E+02  0.2073E+03
     -6.829  0.3890E+02  0.2131E+03
     -6.680  0.5701E+02  0.2216E+03
     -6.531  0.2523E+02  0.2254E+03
     -6.382  0.2819E+02  0.2296E+03
     -6.233  0.9707E+00  0.2298E+03
     -6.083  0.1045E+02  0.2313E+03
     -5.934  0.2975E+02  0.2357E+03
     -5.785  0.8423E+01  0.2370E+03
     -5.636  0.3179E+02  0.2417E+03
     -5.487  0.1606E+01  0.2420E+03
     -5.337  0.8454E+01  0.2432E+03
     -5.188  0.5191E+01  0.2440E+03
     -5.039  0.8220E+01  0.2452E+03
     -4.890  0.2307E-02  0.2453E+03
     -4.741  0.1365E+02  0.2473E+03
     -4.591  0.6452E+01  0.2482E+03
     -4.442  0.2901E-04  0.2483E+03
     -4.293  0.1594E+01  0.2485E+03
     -4.144  0.8454E+01  0.2497E+03
     -3.995  0.6457E-02  0.2497E+03
     -3.845  0.1817E-12  0.2498E+03
     -3.696  0.1526E-02  0.2498E+03
     -3.547  0.1448E+01  0.2500E+03
     -3.398  0.2265E+00  0.2500E+03
     -3.249  0.8587E-07  0.2500E+03
     -3.099  0.0000E+00  0.2500E+03
     -2.950  0.0000E+00  0.2500E+03
     -2.801  0.0000E+00  0.2500E+03
     -2.652  0.0000E+00  0.2500E+03
     -2.503  0.0000E+00  0.2500E+03
     -2.353  0.0000E+00  0.2500E+03
     -2.204  0.0000E+00  0.2500E+03
     -2.055  0.0000E+00  0.2500E+03
     -1.906  0.0000E+00  0.2500E+03
     -1.757  0.0000E+00  0.2500E+03
     -1.607  0.0000E+00  0.2500E+03
     -1.458  0.0000E+00  0.2500E+03
     -1.309  0.0000E+00  0.2500E+03
     -1.160  0.0000E+00  0.2500E+03
     -1.011  0.0000E+00  0.2500E+03
     -0.861  0.0000E+00  0.2500E+03
     -0.712  0.0000E+00  0.2500E+03
     -0.563  0.0000E+00  0.2500E+03
     -0.414  0.0000E+00  0.2500E+03
     -0.265  0.0000E+00  0.2500E+03
     -0.115  0.0000E+00  0.2500E+03
      0.034  0.2171E-12  0.2500E+03
      0.183  0.3003E-02  0.2500E+03
      0.332  0.4202E+01  0.2506E+03
      0.481  0.8278E+00  0.2508E+03
      0.631  0.1566E+02  0.2531E+03
      0.780  0.4501E+01  0.2538E+03
      0.929  0.1861E+02  0.2565E+03
      1.078  0.1451E+01  0.2568E+03
      1.227  0.8892E+01  0.2581E+03
      1.377  0.9185E+01  0.2594E+03
      1.526  0.5269E+02  0.2673E+03
      1.675  0.6771E+02  0.2774E+03
      1.824  0.1231E+02  0.2792E+03
      1.973  0.3861E-02  0.2793E+03
      2.123  0.3803E+02  0.2849E+03
      2.272  0.5944E+02  0.2938E+03
      2.421  0.8548E+02  0.3065E+03
      2.570  0.3439E+02  0.3117E+03
      2.719  0.1170E+03  0.3291E+03
      2.869  0.1196E+03  0.3470E+03
      3.018  0.2572E+01  0.3474E+03
      3.167  0.2012E+03  0.3774E+03
      3.316  0.2040E+03  0.4078E+03
      3.465  0.6854E+02  0.4180E+03
      3.615  0.9882E+02  0.4328E+03
      3.764  0.1217E+03  0.4509E+03
      3.913  0.1411E+03  0.4720E+03
      4.062  0.1214E+03  0.4901E+03
      4.211  0.5339E+02  0.4981E+03
      4.361  0.1208E+03  0.5161E+03
      4.510  0.8845E+02  0.5293E+03
      4.659  0.9624E+02  0.5437E+03
      4.808  0.1377E+03  0.5642E+03
      4.957  0.2012E+01  0.5645E+03
      5.107  0.1042E+02  0.5661E+03
      5.256  0.9041E+02  0.5795E+03
      5.405  0.8206E+02  0.5918E+03
      5.554  0.4831E+02  0.5990E+03
      5.703  0.2906E+02  0.6033E+03
      5.853  0.9570E+02  0.6176E+03
      6.002  0.1061E+03  0.6334E+03
      6.151  0.1054E+03  0.6492E+03
      6.300  0.3952E+02  0.6551E+03
      6.449  0.5623E+02  0.6635E+03
      6.599  0.2060E+03  0.6942E+03
      6.748  0.4243E+02  0.7005E+03
      6.897  0.4154E+02  0.7067E+03
      7.046  0.4588E+02  0.7136E+03
      7.196  0.4010E+02  0.7195E+03
      7.345  0.1897E+02  0.7224E+03
      7.494  0.9248E+00  0.7225E+03
      7.643  0.3632E+02  0.7279E+03
      7.792  0.2781E+02  0.7321E+03
      7.942  0.1524E+03  0.7548E+03
      8.091  0.1148E+03  0.7719E+03
      8.240  0.1140E+03  0.7890E+03
      8.389  0.4206E+02  0.7952E+03
      8.538  0.1059E+03  0.8110E+03
      8.688  0.7727E+02  0.8226E+03
      8.837  0.1045E+03  0.8382E+03
      8.986  0.2583E+03  0.8767E+03
      9.135  0.5740E+02  0.8853E+03
      9.284  0.1891E+03  0.9135E+03
      9.434  0.1008E+03  0.9285E+03
      9.583  0.3826E+02  0.9342E+03
      9.732  0.7344E+02  0.9452E+03
      9.881  0.9755E+02  0.9597E+03
     10.030  0.6649E+02  0.9697E+03
     10.180  0.9596E+02  0.9840E+03
     10.329  0.1612E+03  0.1008E+04
     10.478  0.1070E+03  0.1024E+04
     10.627  0.9228E+02  0.1038E+04
     10.776  0.1689E+03  0.1063E+04
     10.926  0.1975E+03  0.1092E+04
     11.075  0.1917E+03  0.1121E+04
     11.224  0.1549E+03  0.1144E+04
     11.373  0.9810E+02  0.1159E+04
     11.522  0.4497E+02  0.1165E+04
     11.672  0.8144E+02  0.1178E+04
     11.821  0.3092E+02  0.1182E+04
     11.970  0.1615E+02  0.1185E+04
     12.119  0.2507E+03  0.1222E+04
     12.268  0.3138E+02  0.1227E+04
     12.418  0.4043E-04  0.1227E+04
     12.567  0.3100E+01  0.1227E+04
     12.716  0.2013E+02  0.1230E+04
     12.865  0.7294E+02  0.1241E+04
     13.014  0.7693E+02  0.1253E+04
     13.164  0.3255E+02  0.1257E+04
     13.313  0.1442E+03  0.1279E+04
     13.462  0.1620E+03  0.1303E+04
     13.611  0.3961E+03  0.1362E+04
     13.760  0.2192E+03  0.1395E+04
     13.910  0.1848E+03  0.1422E+04
     14.059  0.2557E+03  0.1461E+04
     14.208  0.1421E+03  0.1482E+04
     14.357  0.2287E+03  0.1516E+04
     14.506  0.1722E+03  0.1542E+04
     14.656  0.2179E+03  0.1574E+04
     14.805  0.1586E+03  0.1598E+04
     14.954  0.1654E+03  0.1623E+04
     15.103  0.2049E+03  0.1653E+04
     15.252  0.1671E+03  0.1678E+04
     15.402  0.1663E+03  0.1703E+04
     15.551  0.1997E+03  0.1733E+04
     15.700  0.1653E+03  0.1757E+04
     15.849  0.3469E+03  0.1809E+04
     15.998  0.2457E+03  0.1846E+04
     16.148  0.2212E+03  0.1879E+04
     16.297  0.2984E+03  0.1923E+04
     16.446  0.3068E+03  0.1969E+04
     16.595  0.1024E+03  0.1984E+04
     16.744  0.1824E+03  0.2011E+04
     16.894  0.1124E+03  0.2028E+04
     17.043  0.2935E+02  0.2033E+04
     17.192  0.2983E+03  0.2077E+04
     17.341  0.2568E+03  0.2115E+04
     17.490  0.9479E+02  0.2130E+04
     17.640  0.3540E+02  0.2135E+04
     17.789  0.2031E+03  0.2165E+04
     17.938  0.1343E+03  0.2185E+04
     18.087  0.1338E+03  0.2205E+04
     18.236  0.1557E+03  0.2228E+04
     18.386  0.7233E+02  0.2239E+04
     18.535  0.3520E+02  0.2244E+04
     18.684  0.2937E+02  0.2249E+04
     18.833  0.7875E+01  0.2250E+04
     18.982  0.5438E-02  0.2250E+04
     19.132  0.0000E+00  0.2250E+04
     19.281  0.0000E+00  0.2250E+04
     19.430  0.0000E+00  0.2250E+04
     19.579  0.0000E+00  0.2250E+04
     19.728  0.0000E+00  0.2250E+04
     19.878  0.0000E+00  0.2250E+04
     20.027  0.0000E+00  0.2250E+04
     20.176  0.0000E+00  0.2250E+04
     20.325  0.0000E+00  0.2250E+04
     20.474  0.0000E+00  0.2250E+04
     20.624  0.0000E+00  0.2250E+04
     20.773  0.0000E+00  0.2250E+04
     20.922  0.0000E+00  0.2250E+04
     21.071  0.0000E+00  0.2250E+04
     21.220  0.0000E+00  0.2250E+04
     21.370  0.0000E+00  0.2250E+04
     21.519  0.0000E+00  0.2250E+04
     21.668  0.0000E+00  0.2250E+04
     21.817  0.0000E+00  0.2250E+04
     21.966  0.0000E+00  0.2250E+04
     22.116  0.0000E+00  0.2250E+04
     22.265  0.0000E+00  0.2250E+04
     22.414  0.0000E+00  0.2250E+04
     22.563  0.0000E+00  0.2250E+04
     22.712  0.0000E+00  0.2250E+04
     22.862  0.0000E+00  0.2250E+04
     23.011  0.0000E+00  0.2250E+04
     23.160  0.0000E+00  0.2250E+04
     23.309  0.0000E+00  0.2250E+04
     23.458  0.0000E+00  0.2250E+04
     23.608  0.0000E+00  0.2250E+04
     23.757  0.0000E+00  0.2250E+04
     23.906  0.0000E+00  0.2250E+04
     24.055  0.0000E+00  0.2250E+04
     24.204  0.0000E+00  0.2250E+04
     24.354  0.0000E+00  0.2250E+04
     24.503  0.1023E-14  0.2250E+04
     24.652  0.1284E-03  0.2250E+04
     24.801  0.1119E+01  0.2250E+04
     24.950  0.5564E+00  0.2250E+04
     25.100  0.2758E-05  0.2250E+04
     25.249  0.6480E+00  0.2250E+04
     25.398  0.1432E+02  0.2252E+04
     25.547  0.1130E+00  0.2253E+04
     25.696  0.6360E+01  0.2253E+04
     25.846  0.1398E+02  0.2256E+04
     25.995  0.9818E+01  0.2257E+04
     26.144  0.2155E-03  0.2257E+04
     26.293  0.7803E+00  0.2257E+04
     26.442  0.4879E+02  0.2264E+04
     26.592  0.2415E+02  0.2268E+04
     26.741  0.1739E+01  0.2268E+04
     26.890  0.2056E+02  0.2271E+04
     27.039  0.9455E+02  0.2285E+04
     27.189  0.1914E+02  0.2288E+04
     27.338  0.9572E+02  0.2303E+04
     27.487  0.9364E+02  0.2317E+04
     27.636  0.4778E+02  0.2324E+04
     27.785  0.7526E+02  0.2335E+04
     27.935  0.7053E+02  0.2345E+04
     28.084  0.7616E+02  0.2357E+04
     28.233  0.4972E+02  0.2364E+04
     28.382  0.5297E+02  0.2372E+04
     28.531  0.1409E+03  0.2393E+04
     28.681  0.4598E+02  0.2400E+04
     28.830  0.3037E-01  0.2400E+04
     28.979  0.1341E-10  0.2400E+04
     29.128  0.0000E+00  0.2400E+04
     29.277  0.0000E+00  0.2400E+04
     29.427  0.0000E+00  0.2400E+04
     29.576  0.0000E+00  0.2400E+04
     29.725  0.0000E+00  0.2400E+04
     29.874  0.0000E+00  0.2400E+04
     30.023  0.0000E+00  0.2400E+04
     30.173  0.0000E+00  0.2400E+04
     30.322  0.0000E+00  0.2400E+04
     30.471  0.0000E+00  0.2400E+04
     30.620  0.0000E+00  0.2400E+04
