  250  250    1    1
  0.4685622E+01  0.1054150E-08  0.1054150E-08  0.1054150E-08  0.5000000E-15
   1.0000000000000000E-004
  CAR 
 NiAl                                    
   2000      4   1200
 
  0.1262379E-14  0.1262379E-14  0.1262379E-14  0.1250000E+00
    1      -12.105746   1.000000
    2      -11.135966   1.000000
    3      -11.135966   1.000000
    4      -11.135966   1.000000
    5      -11.135966   1.000000
    6      -11.135966   1.000000
    7      -11.135966   1.000000
    8      -10.298090   1.000000
    9      -10.298090   1.000000
   10      -10.298090   1.000000
   11      -10.298090   1.000000
   12      -10.298090   1.000000
   13      -10.298090   1.000000
   14      -10.298090   1.000000
   15      -10.298090   1.000000
   16      -10.298090   1.000000
   17      -10.298090   1.000000
   18      -10.298090   1.000000
   19      -10.298090   1.000000
   20       -9.546799   1.000000
   21       -9.546799   1.000000
   22       -9.546799   1.000000
   23       -9.546799   1.000000
   24       -9.546799   1.000000
   25       -9.546799   1.000000
   26       -9.546799   1.000000
   27       -9.546799   1.000000
   28       -8.964515   1.000000
   29       -8.964515   1.000000
   30       -8.964515   1.000000
   31       -8.964515   1.000000
   32       -8.964515   1.000000
   33       -8.964515   1.000000
   34       -8.513707   1.000000
   35       -8.513707   1.000000
   36       -8.513707   1.000000
   37       -8.513707   1.000000
   38       -8.513707   1.000000
   39       -8.513707   1.000000
   40       -8.513707   1.000000
   41       -8.513707   1.000000
   42       -8.513707   1.000000
   43       -8.513707   1.000000
   44       -8.513707   1.000000
   45       -8.513707   1.000000
   46       -8.513707   1.000000
   47       -8.513707   1.000000
   48       -8.513707   1.000000
   49       -8.513707   1.000000
   50       -8.513707   1.000000
   51       -8.513707   1.000000
   52       -8.513707   1.000000
   53       -8.513707   1.000000
   54       -8.513707   1.000000
   55       -8.513707   1.000000
   56       -8.513707   1.000000
   57       -8.513707   1.000000
   58       -7.975304   1.000000
   59       -7.975304   1.000000
   60       -7.975304   1.000000
   61       -7.975304   1.000000
   62       -7.975304   1.000000
   63       -7.975304   1.000000
   64       -7.975304   1.000000
   65       -7.975304   1.000000
   66       -7.975304   1.000000
   67       -7.975304   1.000000
   68       -7.975304   1.000000
   69       -7.975304   1.000000
   70       -7.975304   1.000000
   71       -7.975304   1.000000
   72       -7.975304   1.000000
   73       -7.975304   1.000000
   74       -7.975304   1.000000
   75       -7.975304   1.000000
   76       -7.975304   1.000000
   77       -7.975304   1.000000
   78       -7.975304   1.000000
   79       -7.975304   1.000000
   80       -7.975304   1.000000
   81       -7.975304   1.000000
   82       -7.661048   1.000000
   83       -7.661048   1.000000
   84       -7.661048   1.000000
   85       -7.661048   1.000000
   86       -7.661048   1.000000
   87       -7.661048   1.000000
   88       -7.661048   1.000000
   89       -7.661048   1.000000
   90       -7.661048   1.000000
   91       -7.661048   1.000000
   92       -7.661048   1.000000
   93       -7.661048   1.000000
   94       -6.899225   1.000000
   95       -6.899225   1.000000
   96       -6.899225   1.000000
   97       -6.899225   1.000000
   98       -6.899225   1.000000
   99       -6.899225   1.000000
  100       -6.899225   1.000000
  101       -6.899225   1.000000
  102       -6.899225   1.000000
  103       -6.899225   1.000000
  104       -6.899225   1.000000
  105       -6.899225   1.000000
  106       -6.899225   1.000000
  107       -6.899225   1.000000
  108       -6.899225   1.000000
  109       -6.899225   1.000000
  110       -6.899225   1.000000
  111       -6.899225   1.000000
  112       -6.899225   1.000000
  113       -6.899225   1.000000
  114       -6.899225   1.000000
  115       -6.899225   1.000000
  116       -6.899225   1.000000
  117       -6.899225   1.000000
  118       -5.178049   1.000000
  119       -5.178049   1.000000
  120       -5.178049   1.000000
  121       -5.178049   1.000000
  122       -5.178049   1.000000
  123       -5.178049   1.000000
  124       -5.178049   1.000000
  125       -5.178049   1.000000
  126        1.184865   1.000000
  127        1.184865   1.000000
  128        1.184865   1.000000
  129        1.184865   1.000000
  130        1.184865   1.000000
  131        1.184865   1.000000
  132        2.122845   1.000000
  133        2.122845   1.000000
  134        2.122845   1.000000
  135        2.122845   1.000000
  136        2.122845   1.000000
  137        2.122845   1.000000
  138        2.122845   1.000000
  139        2.122845   1.000000
  140        2.122845   1.000000
  141        2.122845   1.000000
  142        2.122845   1.000000
  143        2.122845   1.000000
  144        2.122845   1.000000
  145        2.122845   1.000000
  146        2.122845   1.000000
  147        2.122845   1.000000
  148        2.122845   1.000000
  149        2.122845   1.000000
  150        2.122845   1.000000
  151        2.122845   1.000000
  152        2.122845   1.000000
  153        2.122845   1.000000
  154        2.122845   1.000000
  155        2.122845   1.000000
  156        2.696555   1.000000
  157        2.696555   1.000000
  158        2.696555   1.000000
  159        2.696555   1.000000
  160        2.696555   1.000000
  161        2.696555   1.000000
  162        2.696555   1.000000
  163        2.696555   1.000000
  164        2.696555   1.000000
  165        2.696555   1.000000
  166        2.696555   1.000000
  167        2.696555   1.000000
  168        2.696555   1.000000
  169        2.696555   1.000000
  170        2.696555   1.000000
  171        2.696555   1.000000
  172        2.771040   1.000000
  173        2.771040   1.000000
  174        2.771040   1.000000
  175        2.771040   1.000000
  176        2.771040   1.000000
  177        2.771040   1.000000
  178        2.771040   1.000000
  179        2.771040   1.000000
  180        2.771040   1.000000
  181        2.771040   1.000000
  182        2.771040   1.000000
  183        2.771040   1.000000
  184        2.771040   1.000000
  185        2.771040   1.000000
  186        2.771040   1.000000
  187        2.771040   1.000000
  188        2.771040   1.000000
  189        2.771040   1.000000
  190        2.771040   1.000000
  191        2.771040   1.000000
  192        2.771040   1.000000
  193        2.771040   1.000000
  194        2.771040   1.000000
  195        2.771040   1.000000
  196        3.542685   1.000000
  197        3.542685   1.000000
  198        3.542685   1.000000
  199        3.542685   1.000000
  200        3.542685   1.000000
  201        3.542685   1.000000
  202        3.542685   1.000000
  203        3.542685   1.000000
  204        3.542685   1.000000
  205        3.542685   1.000000
  206        3.542685   1.000000
  207        3.542685   1.000000
  208        3.542685   1.000000
  209        3.542685   1.000000
  210        3.542685   1.000000
  211        3.542685   1.000000
  212        3.542685   1.000000
  213        3.542685   1.000000
  214        3.542685   1.000000
  215        3.542685   1.000000
  216        3.542685   1.000000
  217        3.542685   1.000000
  218        3.542685   1.000000
  219        3.542685   1.000000
  220        3.743467   1.000000
  221        3.743467   1.000000
  222        3.743467   1.000000
  223        3.743467   1.000000
  224        3.743467   1.000000
  225        3.743467   1.000000
  226        3.743467   1.000000
  227        3.743467   1.000000
  228        3.743467   1.000000
  229        3.743467   1.000000
  230        3.743467   1.000000
  231        3.743467   1.000000
  232        3.743467   1.000000
  233        3.743467   1.000000
  234        3.743467   1.000000
  235        3.743467   1.000000
  236        3.743467   1.000000
  237        3.743467   1.000000
  238        3.743467   1.000000
  239        3.743467   1.000000
  240        3.743467   1.000000
  241        3.743467   1.000000
  242        3.743467   1.000000
  243        3.743467   1.000000
  244        3.842775   1.000000
  245        3.842775   1.000000
  246        3.842775   1.000000
  247        3.842775   1.000000
  248        3.842775   1.000000
  249        3.842775   1.000000
  250        3.842775   1.000000
  251        3.842775   1.000000
  252        3.842775   1.000000
  253        3.842775   1.000000
  254        3.842775   1.000000
  255        3.842775   1.000000
  256        4.441302   1.000000
  257        4.441302   1.000000
  258        4.441302   1.000000
  259        4.441302   1.000000
  260        4.441302   1.000000
  261        4.441302   1.000000
  262        4.441302   1.000000
  263        4.441302   1.000000
  264        4.534889   1.000000
  265        4.534889   1.000000
  266        4.534889   1.000000
  267        4.534889   1.000000
  268        4.534889   1.000000
  269        4.534889   1.000000
  270        4.534889   1.000000
  271        4.534889   1.000000
  272        4.534889   1.000000
  273        4.534889   1.000000
  274        4.534889   1.000000
  275        4.534889   1.000000
  276        5.743020   1.000000
  277        5.743020   1.000000
  278        5.743020   1.000000
  279        5.743020   1.000000
  280        5.743020   1.000000
  281        5.743020   1.000000
  282        5.806972   1.000000
  283        5.806972   1.000000
  284        5.806972   1.000000
  285        5.806972   1.000000
  286        5.806972   1.000000
  287        5.806972   1.000000
  288        5.806972   1.000000
  289        5.806972   1.000000
  290        5.806972   1.000000
  291        5.806972   1.000000
  292        5.806972   1.000000
  293        5.806972   1.000000
  294        5.806972   1.000000
  295        5.806972   1.000000
  296        5.806972   1.000000
  297        5.806972   1.000000
  298        5.806972   1.000000
  299        5.806972   1.000000
  300        5.806972   1.000000
  301        5.806972   1.000000
  302        5.806972   1.000000
  303        5.806972   1.000000
  304        5.806972   1.000000
  305        5.806972   1.000000
  306        5.860231   1.000000
  307        5.860231   1.000000
  308        5.860231   1.000000
  309        5.860231   1.000000
  310        5.860231   1.000000
  311        5.860231   1.000000
  312        5.860231   1.000000
  313        5.860231   1.000000
  314        5.860231   1.000000
  315        5.860231   1.000000
  316        5.860231   1.000000
  317        5.860231   1.000000
  318        6.257803   1.000000
  319        6.257803   1.000000
  320        6.257803   1.000000
  321        6.257803   1.000000
  322        6.257803   1.000000
  323        6.257803   1.000000
  324        6.257803   1.000000
  325        6.257803   1.000000
  326        6.257803   1.000000
  327        6.257803   1.000000
  328        6.257803   1.000000
  329        6.257803   1.000000
  330        6.257803   1.000000
  331        6.257803   1.000000
  332        6.257803   1.000000
  333        6.257803   1.000000
  334        6.441666   1.000000
  335        6.441666   1.000000
  336        6.441666   1.000000
  337        6.441666   1.000000
  338        6.441666   1.000000
  339        6.441666   1.000000
  340        6.441666   1.000000
  341        6.441666   1.000000
  342        6.441666   1.000000
  343        6.441666   1.000000
  344        6.441666   1.000000
  345        6.441666   1.000000
  346        6.844442   1.000000
  347        6.844442   1.000000
  348        6.844442   1.000000
  349        6.844442   1.000000
  350        6.844442   1.000000
  351        6.844442   1.000000
  352        6.844442   1.000000
  353        6.844442   1.000000
  354        6.844442   1.000000
  355        6.844442   1.000000
  356        6.844442   1.000000
  357        6.844442   1.000000
  358        6.844442   1.000000
  359        6.844442   1.000000
  360        6.844442   1.000000
  361        6.844442   1.000000
  362        6.844442   1.000000
  363        6.844442   1.000000
  364        6.844442   1.000000
  365        6.844442   1.000000
  366        6.844442   1.000000
  367        6.844442   1.000000
  368        6.844442   1.000000
  369        6.844442   1.000000
  370        7.290560   1.000000
  371        7.290560   1.000000
  372        7.290560   1.000000
  373        7.290560   1.000000
  374        7.290560   1.000000
  375        7.290560   1.000000
  376        7.290560   1.000000
  377        7.290560   1.000000
  378        8.390215   1.000000
  379        8.390215   1.000000
  380        8.390215   1.000000
  381        8.390215   1.000000
  382        8.390215   1.000000
  383        8.390215   1.000000
  384        8.390215   1.000000
  385        8.390215   1.000000
  386        8.390215   1.000000
  387        8.390215   1.000000
  388        8.390215   1.000000
  389        8.390215   1.000000
  390        8.390215   1.000000
  391        8.390215   1.000000
  392        8.390215   1.000000
  393        8.390215   1.000000
  394        8.390215   1.000000
  395        8.390215   1.000000
  396        8.390215   1.000000
  397        8.390215   1.000000
  398        8.390215   1.000000
  399        8.390215   1.000000
  400        8.390215   1.000000
  401        8.390215   1.000000
  402        8.575900   1.000000
  403        8.575900   1.000000
  404        8.575900   1.000000
  405        8.575900   1.000000
  406        8.575900   1.000000
  407        8.575900   1.000000
  408        8.575900   1.000000
  409        8.575900   1.000000
  410        8.575900   1.000000
  411        8.575900   1.000000
  412        8.575900   1.000000
  413        8.575900   1.000000
  414        8.884198   1.000000
  415        8.884198   1.000000
  416        8.884198   1.000000
  417        8.884198   1.000000
  418        8.884198   1.000000
  419        8.884198   1.000000
  420        8.884198   1.000000
  421        8.884198   1.000000
  422        8.884198   1.000000
  423        8.884198   1.000000
  424        8.884198   1.000000
  425        8.884198   1.000000
  426        8.884198   1.000000
  427        8.884198   1.000000
  428        8.884198   1.000000
  429        8.884198   1.000000
  430        8.884198   1.000000
  431        8.884198   1.000000
  432        8.884198   1.000000
  433        8.884198   1.000000
  434        8.884198   1.000000
  435        8.884198   1.000000
  436        8.884198   1.000000
  437        8.884198   1.000000
  438        8.910250   1.000000
  439        8.910250   1.000000
  440        9.279592   1.000000
  441        9.279592   1.000000
  442        9.279592   1.000000
  443        9.279592   1.000000
  444        9.279592   1.000000
  445        9.279592   1.000000
  446        9.316263   1.000000
  447        9.316263   1.000000
  448        9.316263   1.000000
  449        9.316263   1.000000
  450        9.316263   1.000000
  451        9.316263   1.000000
  452        9.316263   1.000000
  453        9.316263   1.000000
  454        9.316263   1.000000
  455        9.316263   1.000000
  456        9.316263   1.000000
  457        9.316263   1.000000
  458        9.316263   1.000000
  459        9.316263   1.000000
  460        9.316263   1.000000
  461        9.316263   1.000000
  462        9.316263   1.000000
  463        9.316263   1.000000
  464        9.316263   1.000000
  465        9.316263   1.000000
  466        9.316263   1.000000
  467        9.316263   1.000000
  468        9.316263   1.000000
  469        9.316263   1.000000
  470        9.714009   1.000000
  471        9.714009   1.000000
  472        9.714009   1.000000
  473        9.714009   1.000000
  474        9.714009   1.000000
  475        9.714009   1.000000
  476        9.714009   1.000000
  477        9.714009   1.000000
  478        9.714009   1.000000
  479        9.714009   1.000000
  480        9.714009   1.000000
  481        9.714009   1.000000
  482        9.855471   1.000000
  483        9.855471   1.000000
  484        9.855471   1.000000
  485        9.855471   1.000000
  486        9.855471   1.000000
  487        9.855471   1.000000
  488        9.855471   1.000000
  489        9.855471   1.000000
  490        9.855471   1.000000
  491        9.855471   1.000000
  492        9.855471   1.000000
  493        9.855471   1.000000
  494        9.926496   1.000000
  495        9.926496   1.000000
  496        9.926496   1.000000
  497        9.926496   1.000000
  498        9.926496   1.000000
  499        9.926496   1.000000
  500       10.657832   1.000000
  501       10.657832   1.000000
  502       10.657832   1.000000
  503       10.657832   1.000000
  504       10.657832   1.000000
  505       10.657832   1.000000
  506       10.657832   1.000000
  507       10.657832   1.000000
  508       10.657832   1.000000
  509       10.657832   1.000000
  510       10.657832   1.000000
  511       10.657832   1.000000
  512       10.660109   1.000000
  513       10.660109   1.000000
  514       10.660109   1.000000
  515       10.660109   1.000000
  516       10.660109   1.000000
  517       10.660109   1.000000
  518       10.660109   1.000000
  519       10.660109   1.000000
  520       10.660109   1.000000
  521       10.660109   1.000000
  522       10.660109   1.000000
  523       10.660109   1.000000
  524       10.660109   1.000000
  525       10.660109   1.000000
  526       10.660109   1.000000
  527       10.660109   1.000000
  528       10.660109   1.000000
  529       10.660109   1.000000
  530       10.660109   1.000000
  531       10.660109   1.000000
  532       10.660109   1.000000
  533       10.660109   1.000000
  534       10.660109   1.000000
  535       10.660109   1.000000
  536       10.704755   1.000000
  537       10.704755   1.000000
  538       10.704755   1.000000
  539       10.704755   1.000000
  540       10.704755   1.000000
  541       10.704755   1.000000
  542       10.704755   1.000000
  543       10.704755   1.000000
  544       10.704755   1.000000
  545       10.704755   1.000000
  546       10.704755   1.000000
  547       10.704755   1.000000
  548       11.017913   1.000000
  549       11.017913   1.000000
  550       11.017913   1.000000
  551       11.017913   1.000000
  552       11.017913   1.000000
  553       11.017913   1.000000
  554       11.017913   1.000000
  555       11.017913   1.000000
  556       11.017913   1.000000
  557       11.017913   1.000000
  558       11.017913   1.000000
  559       11.017913   1.000000
  560       11.023445   1.000000
  561       11.023445   1.000000
  562       11.023445   1.000000
  563       11.555913   1.000000
  564       11.555913   1.000000
  565       11.555913   1.000000
  566       11.555913   1.000000
  567       11.555913   1.000000
  568       11.555913   1.000000
  569       11.555913   1.000000
  570       11.555913   1.000000
  571       11.555913   1.000000
  572       11.555913   1.000000
  573       11.555913   1.000000
  574       11.555913   1.000000
  575       11.555913   1.000000
  576       11.555913   1.000000
  577       11.555913   1.000000
  578       11.555913   1.000000
  579       11.555913   1.000000
  580       11.555913   1.000000
  581       11.555913   1.000000
  582       11.555913   1.000000
  583       11.555913   1.000000
  584       11.555913   1.000000
  585       11.555913   1.000000
  586       11.555913   1.000000
  587       12.077547   1.000000
  588       12.077547   1.000000
  589       12.077547   1.000000
  590       12.077547   1.000000
  591       12.077547   1.000000
  592       12.077547   1.000000
  593       12.077547   1.000000
  594       12.077547   1.000000
  595       12.077547   1.000000
  596       12.077547   1.000000
  597       12.077547   1.000000
  598       12.077547   1.000000
  599       12.077547   1.000000
  600       12.077547   1.000000
  601       12.077547   1.000000
  602       12.077547   1.000000
  603       12.077547   1.000000
  604       12.077547   1.000000
  605       12.077547   1.000000
  606       12.077547   1.000000
  607       12.077547   1.000000
  608       12.077547   1.000000
  609       12.077547   1.000000
  610       12.077547   1.000000
  611       12.083669   1.000000
  612       12.083669   1.000000
  613       12.083669   1.000000
  614       12.083669   1.000000
  615       12.083669   1.000000
  616       12.083669   1.000000
  617       12.083669   1.000000
  618       12.083669   1.000000
  619       12.083669   1.000000
  620       12.083669   1.000000
  621       12.083669   1.000000
  622       12.083669   1.000000
  623       12.083669   1.000000
  624       12.083669   1.000000
  625       12.083669   1.000000
  626       12.083669   1.000000
  627       12.584456   1.000000
  628       12.584456   1.000000
  629       12.584456   1.000000
  630       12.584456   1.000000
  631       12.584456   1.000000
  632       12.584456   1.000000
  633       13.177047   1.000000
  634       13.177047   1.000000
  635       13.177047   1.000000
  636       13.177047   1.000000
  637       13.177047   1.000000
  638       13.177047   1.000000
  639       13.177047   1.000000
  640       13.177047   1.000000
  641       13.177047   1.000000
  642       13.177047   1.000000
  643       13.177047   1.000000
  644       13.177047   1.000000
  645       13.442069   1.000000
  646       13.442069   1.000000
  647       13.442069   1.000000
  648       13.442069   1.000000
  649       13.442069   1.000000
  650       13.442069   1.000000
  651       13.442069   1.000000
  652       13.442069   1.000000
  653       13.442069   1.000000
  654       13.442069   1.000000
  655       13.442069   1.000000
  656       13.442069   1.000000
  657       13.442069   1.000000
  658       13.442069   1.000000
  659       13.442069   1.000000
  660       13.442069   1.000000
  661       13.442069   1.000000
  662       13.442069   1.000000
  663       13.442069   1.000000
  664       13.442069   1.000000
  665       13.442069   1.000000
  666       13.442069   1.000000
  667       13.442069   1.000000
  668       13.442069   1.000000
  669       13.565325   1.000000
  670       13.565325   1.000000
  671       13.565325   1.000000
  672       13.565325   1.000000
  673       13.565325   1.000000
  674       13.565325   1.000000
  675       13.565325   1.000000
  676       13.565325   1.000000
  677       13.565325   1.000000
  678       13.565325   1.000000
  679       13.565325   1.000000
  680       13.565325   1.000000
  681       14.020502   1.000000
  682       14.020502   1.000000
  683       14.020502   1.000000
  684       14.020502   1.000000
  685       14.020502   1.000000
  686       14.020502   1.000000
  687       14.020502   1.000000
  688       14.020502   1.000000
  689       14.020502   1.000000
  690       14.020502   1.000000
  691       14.020502   1.000000
  692       14.020502   1.000000
  693       14.020502   1.000000
  694       14.020502   1.000000
  695       14.020502   1.000000
  696       14.020502   1.000000
  697       14.020502   1.000000
  698       14.020502   1.000000
  699       14.020502   1.000000
  700       14.020502   1.000000
  701       14.020502   1.000000
  702       14.020502   1.000000
  703       14.020502   1.000000
  704       14.020502   1.000000
  705       14.143276   1.000000
  706       14.143276   1.000000
  707       14.143276   1.000000
  708       14.143276   1.000000
  709       14.143276   1.000000
  710       14.143276   1.000000
  711       14.143276   1.000000
  712       14.143276   1.000000
  713       14.143276   1.000000
  714       14.143276   1.000000
  715       14.143276   1.000000
  716       14.143276   1.000000
  717       14.177224   1.000000
  718       14.177224   1.000000
  719       14.177224   1.000000
  720       14.177224   1.000000
  721       14.177224   1.000000
  722       14.177224   1.000000
  723       14.177224   1.000000
  724       14.177224   1.000000
  725       14.177224   1.000000
  726       14.177224   1.000000
  727       14.177224   1.000000
  728       14.177224   1.000000
  729       14.177224   1.000000
  730       14.177224   1.000000
  731       14.177224   1.000000
  732       14.177224   1.000000
  733       14.177224   1.000000
  734       14.177224   1.000000
  735       14.177224   1.000000
  736       14.177224   1.000000
  737       14.177224   1.000000
  738       14.177224   1.000000
  739       14.177224   1.000000
  740       14.177224   1.000000
  741       14.207690   1.000000
  742       14.207690   1.000000
  743       14.207690   1.000000
  744       14.207690   1.000000
  745       14.207690   1.000000
  746       14.207690   1.000000
  747       14.207690   1.000000
  748       14.207690   1.000000
  749       14.207690   1.000000
  750       14.207690   1.000000
  751       14.207690   1.000000
  752       14.207690   1.000000
  753       14.207690   1.000000
  754       14.207690   1.000000
  755       14.207690   1.000000
  756       14.207690   1.000000
  757       14.207690   1.000000
  758       14.207690   1.000000
  759       14.207690   1.000000
  760       14.207690   1.000000
  761       14.207690   1.000000
  762       14.207690   1.000000
  763       14.207690   1.000000
  764       14.207690   1.000000
  765       14.490825   1.000000
  766       14.490825   1.000000
  767       14.490825   1.000000
  768       14.490825   1.000000
  769       14.490825   1.000000
  770       14.490825   1.000000
  771       14.490825   1.000000
  772       14.490825   1.000000
  773       14.490825   1.000000
  774       14.490825   1.000000
  775       14.490825   1.000000
  776       14.490825   1.000000
  777       14.490825   1.000000
  778       14.490825   1.000000
  779       14.490825   1.000000
  780       14.490825   1.000000
  781       14.490825   1.000000
  782       14.490825   1.000000
  783       14.490825   1.000000
  784       14.490825   1.000000
  785       14.490825   1.000000
  786       14.490825   1.000000
  787       14.490825   1.000000
  788       14.490825   1.000000
  789       14.765255   1.000000
  790       14.765255   1.000000
  791       14.765255   1.000000
  792       14.854302   1.000000
  793       14.854302   1.000000
  794       14.854302   1.000000
  795       14.854302   1.000000
  796       14.854302   1.000000
  797       14.854302   1.000000
  798       14.997407   1.000000
  799       14.997407   1.000000
  800       14.997407   1.000000
  801       14.997407   1.000000
  802       14.997407   1.000000
  803       14.997407   1.000000
  804       15.079163   1.000000
  805       15.079163   1.000000
  806       15.079163   1.000000
  807       15.079163   1.000000
  808       15.079163   1.000000
  809       15.079163   1.000000
  810       15.079163   1.000000
  811       15.079163   1.000000
  812       15.079163   1.000000
  813       15.079163   1.000000
  814       15.079163   1.000000
  815       15.079163   1.000000
  816       15.148915   1.000000
  817       15.148915   1.000000
  818       15.148915   1.000000
  819       15.148915   1.000000
  820       15.148915   1.000000
  821       15.148915   1.000000
  822       15.148915   1.000000
  823       15.148915   1.000000
  824       15.148915   1.000000
  825       15.148915   1.000000
  826       15.148915   1.000000
  827       15.148915   1.000000
  828       15.216462   1.000000
  829       15.216462   1.000000
  830       15.216462   1.000000
  831       15.216462   1.000000
  832       15.216462   1.000000
  833       15.216462   1.000000
  834       15.216462   1.000000
  835       15.216462   1.000000
  836       15.216462   1.000000
  837       15.216462   1.000000
  838       15.216462   1.000000
  839       15.216462   1.000000
  840       15.216462   1.000000
  841       15.216462   1.000000
  842       15.216462   1.000000
  843       15.216462   1.000000
  844       15.401042   1.000000
  845       15.401042   1.000000
  846       15.401042   1.000000
  847       15.401042   1.000000
  848       15.401042   1.000000
  849       15.401042   1.000000
  850       15.401042   1.000000
  851       15.401042   1.000000
  852       15.401042   1.000000
  853       15.401042   1.000000
  854       15.401042   1.000000
  855       15.401042   1.000000
  856       15.401042   1.000000
  857       15.401042   1.000000
  858       15.401042   1.000000
  859       15.401042   1.000000
  860       15.401042   1.000000
  861       15.401042   1.000000
  862       15.401042   1.000000
  863       15.401042   1.000000
  864       15.401042   1.000000
  865       15.401042   1.000000
  866       15.401042   1.000000
  867       15.401042   1.000000
  868       15.405653   1.000000
  869       15.405653   1.000000
  870       15.405653   1.000000
  871       15.405653   1.000000
  872       15.405653   1.000000
  873       15.405653   1.000000
  874       15.556916   1.000000
  875       15.556916   1.000000
  876       15.556916   1.000000
  877       15.556916   1.000000
  878       15.556916   1.000000
  879       15.556916   1.000000
  880       15.556916   1.000000
  881       15.556916   1.000000
  882       15.800378   1.000000
  883       15.800378   1.000000
  884       15.800378   1.000000
  885       15.800378   1.000000
  886       15.800378   1.000000
  887       15.800378   1.000000
  888       15.800378   1.000000
  889       15.800378   1.000000
  890       15.800378   1.000000
  891       15.800378   1.000000
  892       15.800378   1.000000
  893       15.800378   1.000000
  894       15.899804   1.000000
  895       15.899804   1.000000
  896       15.899804   1.000000
  897       15.899804   1.000000
  898       15.899804   1.000000
  899       15.899804   1.000000
  900       15.899804   1.000000
  901       15.899804   1.000000