       N       E                     dE             d eps       ncg     rms          rms(c)
DAV:   1     0.287016336103E+05    0.28702E+05   -0.76044E+05  9728   0.186E+03
DAV:   2     0.399003673026E+04   -0.24712E+05   -0.23581E+05  9600   0.637E+02
DAV:   3    -0.170669884337E+03   -0.41607E+04   -0.36344E+04 10184   0.284E+02
DAV:   4    -0.621397421912E+03   -0.45073E+03   -0.43305E+03 14056   0.103E+02
DAV:   5    -0.635950781667E+03   -0.14553E+02   -0.14467E+02 13880   0.178E+01    0.594E+02
DAV:   6    -0.447023694726E+03    0.18893E+03   -0.10632E+03 14168   0.927E+01    0.353E+02
DAV:   7    -0.580080165008E+03   -0.13306E+03   -0.16922E+03 10912   0.146E+02    0.167E+02
DAV:   8    -0.383241229868E+03    0.19684E+03   -0.46238E+02 11488   0.747E+01    0.252E+01
DAV:   9    -0.385248086353E+03   -0.20069E+01   -0.64562E+01 12200   0.132E+01    0.158E+01
DAV:  10    -0.384706512433E+03    0.54157E+00   -0.32330E+00 11280   0.369E+00    0.166E+01
DAV:  11    -0.384618428072E+03    0.88084E-01   -0.21395E-01 12904   0.819E-01    0.107E+01
DAV:  12    -0.384378546052E+03    0.23988E+00   -0.79023E-01 15264   0.192E+00    0.140E+00
DAV:  13    -0.384392741321E+03   -0.14195E-01   -0.14380E-01 10640   0.724E-01    0.344E+00
DAV:  14    -0.384390446109E+03    0.22952E-02   -0.78362E-03 10888   0.179E-01    0.128E+00
DAV:  15    -0.384390642608E+03   -0.19650E-03   -0.19994E-03 10328   0.962E-02    0.392E-01
DAV:  16    -0.384390476502E+03    0.16611E-03   -0.12154E-03 11040   0.110E-01    0.319E-01
DAV:  17    -0.384390430187E+03    0.46315E-04   -0.62060E-04 12256   0.372E-02    0.633E-02
DAV:  18    -0.384390434157E+03   -0.39699E-05   -0.23629E-05 12080   0.999E-03    0.364E-02
DAV:  19    -0.384390437029E+03   -0.28721E-05   -0.17804E-06 11784   0.191E-03    0.251E-02
DAV:  20    -0.384390440763E+03   -0.37343E-05   -0.56870E-07  8656   0.150E-03    0.271E-03
DAV:  21    -0.384390441133E+03   -0.36957E-06   -0.11575E-07  5752   0.572E-04    0.115E-03
DAV:  22    -0.384390441003E+03    0.12989E-06   -0.29117E-08  5736   0.312E-04    0.297E-04
DAV:  23    -0.384390440990E+03    0.12857E-07   -0.12692E-08  5736   0.208E-04
   1 F= -.50951704E+03 E0= -.50939713E+03  d E =-.239808E+00
