 254 254   0   0
  0.3019211E+02  0.1718057E-08  0.1718057E-08  0.3000000E-08  0.5000000E-15
   1.0000000000000000E-004
  CAR 
 NiAl                                    
      5.78954940    -30.22491669  301      1.81065644      1.00000000
    -30.225  0.0000E+00  0.0000E+00
    -30.105  0.0000E+00  0.0000E+00
    -29.985  0.0000E+00  0.0000E+00
    -29.865  0.0000E+00  0.0000E+00
    -29.745  0.0000E+00  0.0000E+00
    -29.625  0.0000E+00  0.0000E+00
    -29.505  0.0000E+00  0.0000E+00
    -29.385  0.0000E+00  0.0000E+00
    -29.265  0.0000E+00  0.0000E+00
    -29.144  0.0000E+00  0.0000E+00
    -29.024  0.0000E+00  0.0000E+00
    -28.904  0.0000E+00  0.0000E+00
    -28.784  0.2019E-06  0.2424E-07
    -28.664  0.2416E+00  0.2900E-01
    -28.544  0.1454E+02  0.1774E+01
    -28.424  0.1879E+01  0.2000E+01
    -28.304  0.3405E-04  0.2000E+01
    -28.184  0.0000E+00  0.2000E+01
    -28.064  0.0000E+00  0.2000E+01
    -27.944  0.0000E+00  0.2000E+01
    -27.824  0.0000E+00  0.2000E+01
    -27.704  0.0000E+00  0.2000E+01
    -27.584  0.0000E+00  0.2000E+01
    -27.464  0.0000E+00  0.2000E+01
    -27.344  0.0000E+00  0.2000E+01
    -27.224  0.0000E+00  0.2000E+01
    -27.104  0.0000E+00  0.2000E+01
    -26.984  0.0000E+00  0.2000E+01
    -26.864  0.0000E+00  0.2000E+01
    -26.744  0.0000E+00  0.2000E+01
    -26.623  0.0000E+00  0.2000E+01
    -26.503  0.0000E+00  0.2000E+01
    -26.383  0.0000E+00  0.2000E+01
    -26.263  0.0000E+00  0.2000E+01
    -26.143  0.0000E+00  0.2000E+01
    -26.023  0.0000E+00  0.2000E+01
    -25.903  0.0000E+00  0.2000E+01
    -25.783  0.0000E+00  0.2000E+01
    -25.663  0.0000E+00  0.2000E+01
    -25.543  0.0000E+00  0.2000E+01
    -25.423  0.0000E+00  0.2000E+01
    -25.303  0.0000E+00  0.2000E+01
    -25.183  0.0000E+00  0.2000E+01
    -25.063  0.0000E+00  0.2000E+01
    -24.943  0.0000E+00  0.2000E+01
    -24.823  0.0000E+00  0.2000E+01
    -24.703  0.0000E+00  0.2000E+01
    -24.583  0.0000E+00  0.2000E+01
    -24.463  0.0000E+00  0.2000E+01
    -24.343  0.0000E+00  0.2000E+01
    -24.223  0.0000E+00  0.2000E+01
    -24.102  0.0000E+00  0.2000E+01
    -23.982  0.0000E+00  0.2000E+01
    -23.862  0.0000E+00  0.2000E+01
    -23.742  0.0000E+00  0.2000E+01
    -23.622  0.0000E+00  0.2000E+01
    -23.502  0.0000E+00  0.2000E+01
    -23.382  0.0000E+00  0.2000E+01
    -23.262  0.0000E+00  0.2000E+01
    -23.142  0.0000E+00  0.2000E+01
    -23.022  0.0000E+00  0.2000E+01
    -22.902  0.0000E+00  0.2000E+01
    -22.782  0.0000E+00  0.2000E+01
    -22.662  0.0000E+00  0.2000E+01
    -22.542  0.0000E+00  0.2000E+01
    -22.422  0.0000E+00  0.2000E+01
    -22.302  0.0000E+00  0.2000E+01
    -22.182  0.0000E+00  0.2000E+01
    -22.062  0.0000E+00  0.2000E+01
    -21.942  0.0000E+00  0.2000E+01
    -21.822  0.0000E+00  0.2000E+01
    -21.701  0.0000E+00  0.2000E+01
    -21.581  0.0000E+00  0.2000E+01
    -21.461  0.0000E+00  0.2000E+01
    -21.341  0.0000E+00  0.2000E+01
    -21.221  0.0000E+00  0.2000E+01
    -21.101  0.0000E+00  0.2000E+01
    -20.981  0.0000E+00  0.2000E+01
    -20.861  0.0000E+00  0.2000E+01
    -20.741  0.0000E+00  0.2000E+01
    -20.621  0.0000E+00  0.2000E+01
    -20.501  0.0000E+00  0.2000E+01
    -20.381  0.0000E+00  0.2000E+01
    -20.261  0.0000E+00  0.2000E+01
    -20.141  0.0000E+00  0.2000E+01
    -20.021  0.0000E+00  0.2000E+01
    -19.901  0.0000E+00  0.2000E+01
    -19.781  0.0000E+00  0.2000E+01
    -19.661  0.0000E+00  0.2000E+01
    -19.541  0.0000E+00  0.2000E+01
    -19.421  0.0000E+00  0.2000E+01
    -19.301  0.0000E+00  0.2000E+01
    -19.180  0.0000E+00  0.2000E+01
    -19.060  0.0000E+00  0.2000E+01
    -18.940  0.0000E+00  0.2000E+01
    -18.820  0.0000E+00  0.2000E+01
    -18.700  0.0000E+00  0.2000E+01
    -18.580  0.0000E+00  0.2000E+01
    -18.460  0.0000E+00  0.2000E+01
    -18.340  0.0000E+00  0.2000E+01
    -18.220  0.0000E+00  0.2000E+01
    -18.100  0.0000E+00  0.2000E+01
    -17.980  0.0000E+00  0.2000E+01
    -17.860  0.0000E+00  0.2000E+01
    -17.740  0.0000E+00  0.2000E+01
    -17.620  0.0000E+00  0.2000E+01
    -17.500  0.0000E+00  0.2000E+01
    -17.380  0.0000E+00  0.2000E+01
    -17.260  0.0000E+00  0.2000E+01
    -17.140  0.0000E+00  0.2000E+01
    -17.020  0.0000E+00  0.2000E+01
    -16.900  0.0000E+00  0.2000E+01
    -16.780  0.0000E+00  0.2000E+01
    -16.659  0.0000E+00  0.2000E+01
    -16.539  0.0000E+00  0.2000E+01
    -16.419  0.0000E+00  0.2000E+01
    -16.299  0.0000E+00  0.2000E+01
    -16.179  0.0000E+00  0.2000E+01
    -16.059  0.0000E+00  0.2000E+01
    -15.939  0.0000E+00  0.2000E+01
    -15.819  0.0000E+00  0.2000E+01
    -15.699  0.0000E+00  0.2000E+01
    -15.579  0.0000E+00  0.2000E+01
    -15.459  0.0000E+00  0.2000E+01
    -15.339  0.0000E+00  0.2000E+01
    -15.219  0.0000E+00  0.2000E+01
    -15.099  0.0000E+00  0.2000E+01
    -14.979  0.0000E+00  0.2000E+01
    -14.859  0.0000E+00  0.2000E+01
    -14.739  0.0000E+00  0.2000E+01
    -14.619  0.0000E+00  0.2000E+01
    -14.499  0.0000E+00  0.2000E+01
    -14.379  0.0000E+00  0.2000E+01
    -14.259  0.0000E+00  0.2000E+01
    -14.138  0.0000E+00  0.2000E+01
    -14.018  0.0000E+00  0.2000E+01
    -13.898  0.0000E+00  0.2000E+01
    -13.778  0.0000E+00  0.2000E+01
    -13.658  0.0000E+00  0.2000E+01
    -13.538  0.0000E+00  0.2000E+01
    -13.418  0.0000E+00  0.2000E+01
    -13.298  0.0000E+00  0.2000E+01
    -13.178  0.0000E+00  0.2000E+01
    -13.058  0.0000E+00  0.2000E+01
    -12.938  0.0000E+00  0.2000E+01
    -12.818  0.0000E+00  0.2000E+01
    -12.698  0.0000E+00  0.2000E+01
    -12.578  0.1008E-05  0.2000E+01
    -12.458  0.4823E+00  0.2058E+01
    -12.338  0.1506E+02  0.3866E+01
    -12.218  0.1115E+01  0.4000E+01
    -12.098  0.8214E-05  0.4000E+01
    -11.978  0.0000E+00  0.4000E+01
    -11.858  0.0000E+00  0.4000E+01
    -11.737  0.0000E+00  0.4000E+01
    -11.617  0.0000E+00  0.4000E+01
    -11.497  0.0000E+00  0.4000E+01
    -11.377  0.0000E+00  0.4000E+01
    -11.257  0.0000E+00  0.4000E+01
    -11.137  0.0000E+00  0.4000E+01
    -11.017  0.0000E+00  0.4000E+01
    -10.897  0.0000E+00  0.4000E+01
    -10.777  0.0000E+00  0.4000E+01
    -10.657  0.0000E+00  0.4000E+01
    -10.537  0.0000E+00  0.4000E+01
    -10.417  0.0000E+00  0.4000E+01
    -10.297  0.0000E+00  0.4000E+01
    -10.177  0.0000E+00  0.4000E+01
    -10.057  0.0000E+00  0.4000E+01
     -9.937  0.0000E+00  0.4000E+01
     -9.817  0.0000E+00  0.4000E+01
     -9.697  0.0000E+00  0.4000E+01
     -9.577  0.0000E+00  0.4000E+01
     -9.457  0.0000E+00  0.4000E+01
     -9.337  0.1986E-08  0.4000E+01
     -9.216  0.1353E-01  0.4002E+01
     -9.096  0.3110E+01  0.4375E+01
     -8.976  0.7504E+01  0.5276E+01
     -8.856  0.1848E+02  0.7494E+01
     -8.736  0.3486E+01  0.7913E+01
     -8.616  0.2342E+02  0.1072E+02
     -8.496  0.3031E+02  0.1436E+02
     -8.376  0.2174E+02  0.1697E+02
     -8.256  0.1880E+02  0.1923E+02
     -8.136  0.1824E+02  0.2142E+02
     -8.016  0.3210E+02  0.2527E+02
     -7.896  0.6495E+02  0.3307E+02
     -7.776  0.1189E+02  0.3450E+02
     -7.656  0.1024E+02  0.3573E+02
     -7.536  0.8868E+02  0.4637E+02
     -7.416  0.3519E+02  0.5060E+02
     -7.296  0.1436E+02  0.5232E+02
     -7.176  0.2546E+02  0.5538E+02
     -7.056  0.4510E+02  0.6079E+02
     -6.936  0.7307E+02  0.6956E+02
     -6.816  0.4228E+02  0.7464E+02
     -6.695  0.5194E+02  0.8087E+02
     -6.575  0.8597E+02  0.9120E+02
     -6.455  0.3189E+02  0.9502E+02
     -6.335  0.8146E+01  0.9600E+02
     -6.215  0.3699E+01  0.9645E+02
     -6.095  0.8803E+02  0.1070E+03
     -5.975  0.8399E+02  0.1171E+03
     -5.855  0.5494E+02  0.1237E+03
     -5.735  0.3846E+02  0.1283E+03
     -5.615  0.9344E+02  0.1395E+03
     -5.495  0.4829E+02  0.1453E+03
     -5.375  0.2051E+02  0.1478E+03
     -5.255  0.6769E+02  0.1559E+03
     -5.135  0.4656E+02  0.1615E+03
     -5.015  0.7821E+02  0.1709E+03
     -4.895  0.5848E+02  0.1779E+03
     -4.775  0.2524E+02  0.1809E+03
     -4.655  0.1033E+03  0.1933E+03
     -4.535  0.6324E+02  0.2009E+03
     -4.415  0.5464E+02  0.2075E+03
     -4.295  0.4880E+02  0.2133E+03
     -4.174  0.8766E+02  0.2239E+03
     -4.054  0.1097E+03  0.2370E+03
     -3.934  0.5852E+02  0.2441E+03
     -3.814  0.6283E+02  0.2516E+03
     -3.694  0.7603E+02  0.2607E+03
     -3.574  0.6743E+02  0.2688E+03
     -3.454  0.6271E+02  0.2764E+03
     -3.334  0.1025E+02  0.2776E+03
     -3.214  0.5790E+02  0.2845E+03
     -3.094  0.8659E+02  0.2949E+03
     -2.974  0.1040E+03  0.3074E+03
     -2.854  0.1092E+03  0.3205E+03
     -2.734  0.1766E+03  0.3417E+03
     -2.614  0.6465E+02  0.3495E+03
     -2.494  0.2435E+01  0.3498E+03
     -2.374  0.5075E+02  0.3559E+03
     -2.254  0.1255E+03  0.3709E+03
     -2.134  0.7030E+02  0.3794E+03
     -2.014  0.7934E+02  0.3889E+03
     -1.894  0.6625E+02  0.3969E+03
     -1.773  0.1294E+03  0.4124E+03
     -1.653  0.8184E+02  0.4222E+03
     -1.533  0.5938E+02  0.4293E+03
     -1.413  0.6572E+02  0.4372E+03
     -1.293  0.1671E+03  0.4573E+03
     -1.173  0.1028E+03  0.4696E+03
     -1.053  0.7993E+02  0.4792E+03
     -0.933  0.7247E+02  0.4879E+03
     -0.813  0.1325E+03  0.5038E+03
     -0.693  0.7602E+02  0.5130E+03
     -0.573  0.3631E+02  0.5173E+03
     -0.453  0.1109E+03  0.5306E+03
     -0.333  0.1735E+03  0.5515E+03
     -0.213  0.1234E+03  0.5663E+03
     -0.093  0.5867E+02  0.5733E+03
      0.027  0.3605E+02  0.5776E+03
      0.147  0.1081E+03  0.5906E+03
      0.267  0.9451E+02  0.6020E+03
      0.387  0.7140E+02  0.6105E+03
      0.507  0.1310E+03  0.6263E+03
      0.627  0.7823E+02  0.6357E+03
      0.748  0.5076E+02  0.6418E+03
      0.868  0.5666E+02  0.6486E+03
      0.988  0.1852E+03  0.6708E+03
      1.108  0.1722E+03  0.6915E+03
      1.228  0.8773E+02  0.7020E+03
      1.348  0.7003E+02  0.7104E+03
      1.468  0.8937E+02  0.7211E+03
      1.588  0.1372E+03  0.7376E+03
      1.708  0.1763E+03  0.7588E+03
      1.828  0.8530E+02  0.7690E+03
      1.948  0.7183E+02  0.7776E+03
      2.068  0.1546E+03  0.7962E+03
      2.188  0.8095E+02  0.8059E+03
      2.308  0.7014E+02  0.8143E+03
      2.428  0.8380E+02  0.8244E+03
      2.548  0.9390E+02  0.8357E+03
      2.668  0.1400E+03  0.8525E+03
      2.788  0.7063E+02  0.8610E+03
      2.908  0.1304E+03  0.8766E+03
      3.028  0.2779E+03  0.9100E+03
      3.148  0.7961E+02  0.9195E+03
      3.269  0.7964E+02  0.9291E+03
      3.389  0.1246E+03  0.9441E+03
      3.509  0.1463E+03  0.9616E+03
      3.629  0.7391E+02  0.9705E+03
      3.749  0.1101E+03  0.9837E+03
      3.869  0.6807E+02  0.9919E+03
      3.989  0.1582E+03  0.1011E+04
      4.109  0.9928E+02  0.1023E+04
      4.229  0.9923E+01  0.1024E+04
      4.349  0.8015E-01  0.1024E+04
      4.469  0.6026E-07  0.1024E+04
      4.589  0.0000E+00  0.1024E+04
      4.709  0.0000E+00  0.1024E+04
      4.829  0.0000E+00  0.1024E+04
      4.949  0.0000E+00  0.1024E+04
      5.069  0.0000E+00  0.1024E+04
      5.189  0.0000E+00  0.1024E+04
      5.309  0.0000E+00  0.1024E+04
      5.429  0.0000E+00  0.1024E+04
      5.549  0.0000E+00  0.1024E+04
      5.670  0.0000E+00  0.1024E+04
      5.790  0.0000E+00  0.1024E+04
