   4   4   0   0
  0.7621563E+03  0.1450000E-08  0.1450000E-08  0.1450000E-08  0.5000000E-15
   1.0000000000000000E-004
  CAR 
 NiAl                                    
      2.19331807    -35.64394642  301     -6.35159750      1.00000000
    -35.644  0.0000E+00  0.0000E+00
    -35.518  0.0000E+00  0.0000E+00
    -35.392  0.0000E+00  0.0000E+00
    -35.266  0.0000E+00  0.0000E+00
    -35.139  0.0000E+00  0.0000E+00
    -35.013  0.0000E+00  0.0000E+00
    -34.887  0.0000E+00  0.0000E+00
    -34.761  0.0000E+00  0.0000E+00
    -34.635  0.0000E+00  0.0000E+00
    -34.509  0.0000E+00  0.0000E+00
    -34.383  0.0000E+00  0.0000E+00
    -34.257  0.0000E+00  0.0000E+00
    -34.130  0.4203E-07  0.5301E-08
    -34.004  0.1839E+00  0.2320E-01
    -33.878  0.1413E+02  0.1805E+01
    -33.752  0.1543E+01  0.2000E+01
    -33.626  0.9096E-05  0.2000E+01
    -33.500  0.0000E+00  0.2000E+01
    -33.374  0.0000E+00  0.2000E+01
    -33.248  0.0000E+00  0.2000E+01
    -33.121  0.0000E+00  0.2000E+01
    -32.995  0.0000E+00  0.2000E+01
    -32.869  0.0000E+00  0.2000E+01
    -32.743  0.0000E+00  0.2000E+01
    -32.617  0.0000E+00  0.2000E+01
    -32.491  0.0000E+00  0.2000E+01
    -32.365  0.0000E+00  0.2000E+01
    -32.239  0.0000E+00  0.2000E+01
    -32.112  0.6065E-12  0.2000E+01
    -31.986  0.7350E-03  0.2000E+01
    -31.860  0.5808E+01  0.2733E+01
    -31.734  0.1004E+02  0.3999E+01
    -31.608  0.9963E-02  0.4000E+01
    -31.482  0.8704E-10  0.4000E+01
    -31.356  0.0000E+00  0.4000E+01
    -31.230  0.0000E+00  0.4000E+01
    -31.103  0.0000E+00  0.4000E+01
    -30.977  0.0000E+00  0.4000E+01
    -30.851  0.0000E+00  0.4000E+01
    -30.725  0.0000E+00  0.4000E+01
    -30.599  0.0000E+00  0.4000E+01
    -30.473  0.0000E+00  0.4000E+01
    -30.347  0.0000E+00  0.4000E+01
    -30.221  0.0000E+00  0.4000E+01
    -30.094  0.0000E+00  0.4000E+01
    -29.968  0.0000E+00  0.4000E+01
    -29.842  0.0000E+00  0.4000E+01
    -29.716  0.0000E+00  0.4000E+01
    -29.590  0.0000E+00  0.4000E+01
    -29.464  0.0000E+00  0.4000E+01
    -29.338  0.0000E+00  0.4000E+01
    -29.212  0.0000E+00  0.4000E+01
    -29.085  0.0000E+00  0.4000E+01
    -28.959  0.0000E+00  0.4000E+01
    -28.833  0.0000E+00  0.4000E+01
    -28.707  0.0000E+00  0.4000E+01
    -28.581  0.0000E+00  0.4000E+01
    -28.455  0.0000E+00  0.4000E+01
    -28.329  0.0000E+00  0.4000E+01
    -28.203  0.0000E+00  0.4000E+01
    -28.076  0.0000E+00  0.4000E+01
    -27.950  0.0000E+00  0.4000E+01
    -27.824  0.0000E+00  0.4000E+01
    -27.698  0.0000E+00  0.4000E+01
    -27.572  0.0000E+00  0.4000E+01
    -27.446  0.0000E+00  0.4000E+01
    -27.320  0.0000E+00  0.4000E+01
    -27.194  0.0000E+00  0.4000E+01
    -27.067  0.0000E+00  0.4000E+01
    -26.941  0.0000E+00  0.4000E+01
    -26.815  0.0000E+00  0.4000E+01
    -26.689  0.0000E+00  0.4000E+01
    -26.563  0.0000E+00  0.4000E+01
    -26.437  0.0000E+00  0.4000E+01
    -26.311  0.0000E+00  0.4000E+01
    -26.185  0.0000E+00  0.4000E+01
    -26.059  0.0000E+00  0.4000E+01
    -25.932  0.0000E+00  0.4000E+01
    -25.806  0.0000E+00  0.4000E+01
    -25.680  0.0000E+00  0.4000E+01
    -25.554  0.0000E+00  0.4000E+01
    -25.428  0.0000E+00  0.4000E+01
    -25.302  0.0000E+00  0.4000E+01
    -25.176  0.0000E+00  0.4000E+01
    -25.050  0.0000E+00  0.4000E+01
    -24.923  0.0000E+00  0.4000E+01
    -24.797  0.0000E+00  0.4000E+01
    -24.671  0.0000E+00  0.4000E+01
    -24.545  0.0000E+00  0.4000E+01
    -24.419  0.0000E+00  0.4000E+01
    -24.293  0.0000E+00  0.4000E+01
    -24.167  0.0000E+00  0.4000E+01
    -24.041  0.0000E+00  0.4000E+01
    -23.914  0.0000E+00  0.4000E+01
    -23.788  0.0000E+00  0.4000E+01
    -23.662  0.0000E+00  0.4000E+01
    -23.536  0.0000E+00  0.4000E+01
    -23.410  0.0000E+00  0.4000E+01
    -23.284  0.0000E+00  0.4000E+01
    -23.158  0.0000E+00  0.4000E+01
    -23.032  0.0000E+00  0.4000E+01
    -22.905  0.0000E+00  0.4000E+01
    -22.779  0.0000E+00  0.4000E+01
    -22.653  0.0000E+00  0.4000E+01
    -22.527  0.0000E+00  0.4000E+01
    -22.401  0.0000E+00  0.4000E+01
    -22.275  0.0000E+00  0.4000E+01
    -22.149  0.0000E+00  0.4000E+01
    -22.023  0.0000E+00  0.4000E+01
    -21.896  0.0000E+00  0.4000E+01
    -21.770  0.0000E+00  0.4000E+01
    -21.644  0.0000E+00  0.4000E+01
    -21.518  0.1854E-06  0.4000E+01
    -21.392  0.3460E+00  0.4044E+01
    -21.266  0.1455E+02  0.5879E+01
    -21.140  0.9609E+00  0.6000E+01
    -21.014  0.2460E-05  0.6000E+01
    -20.887  0.0000E+00  0.6000E+01
    -20.761  0.0000E+00  0.6000E+01
    -20.635  0.0000E+00  0.6000E+01
    -20.509  0.0000E+00  0.6000E+01
    -20.383  0.0000E+00  0.6000E+01
    -20.257  0.0000E+00  0.6000E+01
    -20.131  0.0000E+00  0.6000E+01
    -20.005  0.0000E+00  0.6000E+01
    -19.878  0.0000E+00  0.6000E+01
    -19.752  0.0000E+00  0.6000E+01
    -19.626  0.0000E+00  0.6000E+01
    -19.500  0.0000E+00  0.6000E+01
    -19.374  0.0000E+00  0.6000E+01
    -19.248  0.0000E+00  0.6000E+01
    -19.122  0.0000E+00  0.6000E+01
    -18.996  0.5788E-09  0.6000E+01
    -18.869  0.2544E-01  0.6003E+01
    -18.743  0.1159E+02  0.7465E+01
    -18.617  0.4242E+01  0.8000E+01
    -18.491  0.2235E-03  0.8000E+01
    -18.365  0.0000E+00  0.8000E+01
    -18.239  0.0000E+00  0.8000E+01
    -18.113  0.0000E+00  0.8000E+01
    -17.987  0.0000E+00  0.8000E+01
    -17.860  0.0000E+00  0.8000E+01
    -17.734  0.0000E+00  0.8000E+01
    -17.608  0.0000E+00  0.8000E+01
    -17.482  0.0000E+00  0.8000E+01
    -17.356  0.0000E+00  0.8000E+01
    -17.230  0.0000E+00  0.8000E+01
    -17.104  0.0000E+00  0.8000E+01
    -16.978  0.0000E+00  0.8000E+01
    -16.851  0.0000E+00  0.8000E+01
    -16.725  0.0000E+00  0.8000E+01
    -16.599  0.0000E+00  0.8000E+01
    -16.473  0.0000E+00  0.8000E+01
    -16.347  0.0000E+00  0.8000E+01
    -16.221  0.0000E+00  0.8000E+01
    -16.095  0.0000E+00  0.8000E+01
    -15.969  0.0000E+00  0.8000E+01
    -15.842  0.0000E+00  0.8000E+01
    -15.716  0.6680E-05  0.8000E+01
    -15.590  0.1383E+01  0.8174E+01
    -15.464  0.1426E+02  0.9973E+01
    -15.338  0.2152E+00  0.1000E+02
    -15.212  0.6038E-07  0.1000E+02
    -15.086  0.0000E+00  0.1000E+02
    -14.960  0.0000E+00  0.1000E+02
    -14.833  0.0000E+00  0.1000E+02
    -14.707  0.0000E+00  0.1000E+02
    -14.581  0.0000E+00  0.1000E+02
    -14.455  0.0000E+00  0.1000E+02
    -14.329  0.0000E+00  0.1000E+02
    -14.203  0.0000E+00  0.1000E+02
    -14.077  0.0000E+00  0.1000E+02
    -13.951  0.2318E-07  0.1000E+02
    -13.824  0.1416E+00  0.1002E+02
    -13.698  0.1465E+02  0.1187E+02
    -13.572  0.1647E+02  0.1394E+02
    -13.446  0.4538E+00  0.1400E+02
    -13.320  0.3592E-06  0.1400E+02
    -13.194  0.0000E+00  0.1400E+02
    -13.068  0.0000E+00  0.1400E+02
    -12.942  0.0000E+00  0.1400E+02
    -12.815  0.1011E-09  0.1400E+02
    -12.689  0.1074E-01  0.1400E+02
    -12.563  0.1017E+02  0.1528E+02
    -12.437  0.5680E+01  0.1600E+02
    -12.311  0.6720E-03  0.1600E+02
    -12.185  0.1110E-02  0.1600E+02
    -12.059  0.6419E+01  0.1681E+02
    -11.933  0.9431E+01  0.1800E+02
    -11.806  0.6973E-02  0.1800E+02
    -11.680  0.4306E-10  0.1800E+02
    -11.554  0.0000E+00  0.1800E+02
    -11.428  0.0000E+00  0.1800E+02
    -11.302  0.0000E+00  0.1800E+02
    -11.176  0.0000E+00  0.1800E+02
    -11.050  0.0000E+00  0.1800E+02
    -10.924  0.0000E+00  0.1800E+02
    -10.797  0.0000E+00  0.1800E+02
    -10.671  0.0000E+00  0.1800E+02
    -10.545  0.0000E+00  0.1800E+02
    -10.419  0.0000E+00  0.1800E+02
    -10.293  0.0000E+00  0.1800E+02
    -10.167  0.0000E+00  0.1800E+02
    -10.041  0.0000E+00  0.1800E+02
     -9.915  0.0000E+00  0.1800E+02
     -9.788  0.0000E+00  0.1800E+02
     -9.662  0.0000E+00  0.1800E+02
     -9.536  0.1144E-13  0.1800E+02
     -9.410  0.7897E-04  0.1800E+02
     -9.284  0.3131E+01  0.1839E+02
     -9.158  0.1267E+02  0.1999E+02
     -9.032  0.5229E-01  0.2000E+02
     -8.906  0.2617E-08  0.2000E+02
     -8.779  0.0000E+00  0.2000E+02
     -8.653  0.0000E+00  0.2000E+02
     -8.527  0.0000E+00  0.2000E+02
     -8.401  0.0000E+00  0.2000E+02
     -8.275  0.0000E+00  0.2000E+02
     -8.149  0.0000E+00  0.2000E+02
     -8.023  0.3954E-09  0.2000E+02
     -7.897  0.2113E-01  0.2000E+02
     -7.770  0.1129E+02  0.2143E+02
     -7.644  0.4544E+01  0.2200E+02
     -7.518  0.2868E-03  0.2200E+02
     -7.392  0.1092E-12  0.2200E+02
     -7.266  0.0000E+00  0.2200E+02
     -7.140  0.0000E+00  0.2200E+02
     -7.014  0.0000E+00  0.2200E+02
     -6.888  0.8803E-15  0.2200E+02
     -6.762  0.1542E-04  0.2200E+02
     -6.635  0.1850E+01  0.2223E+02
     -6.509  0.1387E+02  0.2398E+02
     -6.383  0.1389E+00  0.2400E+02
     -6.257  0.2220E-07  0.2400E+02
     -6.131  0.0000E+00  0.2400E+02
     -6.005  0.0000E+00  0.2400E+02
     -5.879  0.0000E+00  0.2400E+02
     -5.753  0.0000E+00  0.2400E+02
     -5.626  0.0000E+00  0.2400E+02
     -5.500  0.0000E+00  0.2400E+02
     -5.374  0.5406E-07  0.2400E+02
     -5.248  0.2052E+00  0.2403E+02
     -5.122  0.1422E+02  0.2582E+02
     -4.996  0.1431E+01  0.2600E+02
     -4.870  0.7346E-05  0.2600E+02
     -4.744  0.0000E+00  0.2600E+02
     -4.617  0.0000E+00  0.2600E+02
     -4.491  0.0000E+00  0.2600E+02
     -4.365  0.0000E+00  0.2600E+02
     -4.239  0.0000E+00  0.2600E+02
     -4.113  0.0000E+00  0.2600E+02
     -3.987  0.0000E+00  0.2600E+02
     -3.861  0.0000E+00  0.2600E+02
     -3.735  0.0000E+00  0.2600E+02
     -3.608  0.0000E+00  0.2600E+02
     -3.482  0.0000E+00  0.2600E+02
     -3.356  0.0000E+00  0.2600E+02
     -3.230  0.2016E-12  0.2600E+02
     -3.104  0.4018E-03  0.2600E+02
     -2.978  0.4975E+01  0.2663E+02
     -2.852  0.1087E+02  0.2800E+02
     -2.726  0.1629E-01  0.2800E+02
     -2.599  0.2332E-09  0.2800E+02
     -2.473  0.0000E+00  0.2800E+02
     -2.347  0.0000E+00  0.2800E+02
     -2.221  0.0000E+00  0.2800E+02
     -2.095  0.0000E+00  0.2800E+02
     -1.969  0.0000E+00  0.2800E+02
     -1.843  0.0000E+00  0.2800E+02
     -1.717  0.0000E+00  0.2800E+02
     -1.590  0.0000E+00  0.2800E+02
     -1.464  0.0000E+00  0.2800E+02
     -1.338  0.0000E+00  0.2800E+02
     -1.212  0.0000E+00  0.2800E+02
     -1.086  0.0000E+00  0.2800E+02
     -0.960  0.0000E+00  0.2800E+02
     -0.834  0.0000E+00  0.2800E+02
     -0.708  0.0000E+00  0.2800E+02
     -0.581  0.0000E+00  0.2800E+02
     -0.455  0.8453E-08  0.2800E+02
     -0.329  0.8996E-01  0.2801E+02
     -0.203  0.1339E+02  0.2970E+02
     -0.077  0.2382E+01  0.3000E+02
      0.049  0.3305E-04  0.3000E+02
      0.175  0.8825E-04  0.3000E+02
      0.301  0.3262E+01  0.3041E+02
      0.428  0.2558E+02  0.3364E+02
      0.554  0.1855E+02  0.3598E+02
      0.680  0.1842E+00  0.3600E+02
      0.806  0.4203E-07  0.3600E+02
      0.932  0.0000E+00  0.3600E+02
      1.058  0.0000E+00  0.3600E+02
      1.184  0.0000E+00  0.3600E+02
      1.310  0.0000E+00  0.3600E+02
      1.437  0.0000E+00  0.3600E+02
      1.563  0.0000E+00  0.3600E+02
      1.689  0.0000E+00  0.3600E+02
      1.815  0.0000E+00  0.3600E+02
      1.941  0.0000E+00  0.3600E+02
      2.067  0.0000E+00  0.3600E+02
      2.193  0.0000E+00  0.3600E+02
