    4    4    1    1
  0.7621563E+03  0.1450000E-08  0.1450000E-08  0.1450000E-08  0.5000000E-15
   1.0000000000000000E-004
  CAR 
 NiAl                                    
     24      1     18
 
  0.1262379E-14  0.1262379E-14  0.1262379E-14  0.1000000E+01
      1        -33.924071   1.000000
      2        -31.848142   1.000000
      3        -21.320578   1.000000
      4        -18.765232   1.000000
      5        -15.542187   1.000000
      6        -13.740718   1.000000
      7        -13.639437   1.000000
      8        -12.576056   1.000000
      9        -12.050204   1.000000
     10         -9.253908   1.000000
     11         -7.790412   1.000000
     12         -6.593243   1.000000
     13         -5.169238   0.000000
     14         -2.960622   0.000000
     15         -0.239652   0.000000
     16          0.330681   0.000000
     17          0.406518   0.000000
     18          0.473442   0.000000
