       N       E                     dE             d eps       ncg     rms          rms(c)
DAV:   1     0.171688233751E+03    0.17169E+03   -0.48731E+03    60   0.514E+02
DAV:   2     0.313578312197E+02   -0.14033E+03   -0.13787E+03    66   0.168E+02
DAV:   3    -0.973583039425E+01   -0.41094E+02   -0.34288E+02    60   0.779E+01
DAV:   4    -0.187999760294E+02   -0.90641E+01   -0.90487E+01    60   0.245E+01
DAV:   5    -0.189412390999E+02   -0.14126E+00   -0.13540E+00    42   0.385E+00    0.636E+01
DAV:   6    -0.184167280362E+02    0.52451E+00   -0.62670E-01    42   0.744E+00    0.392E+01
DAV:   7    -0.184215500165E+02   -0.48220E-02   -0.90185E-01    48   0.828E+00    0.128E+00
DAV:   8    -0.184056563932E+02    0.15894E-01   -0.13553E-01    36   0.342E+00    0.428E-01
DAV:   9    -0.184062810743E+02   -0.62468E-03   -0.38029E-03    54   0.539E-01    0.205E-01
DAV:  10    -0.184065209933E+02   -0.23992E-03   -0.25650E-04    36   0.159E-01    0.820E-02
DAV:  11    -0.184066605601E+02   -0.13957E-03   -0.35059E-05    60   0.459E-02    0.825E-03
DAV:  12    -0.184068244667E+02   -0.16391E-03   -0.16088E-05    48   0.279E-02    0.567E-03
DAV:  13    -0.184069111436E+02   -0.86677E-04   -0.37595E-06    60   0.143E-02    0.101E-02
DAV:  14    -0.184070485703E+02   -0.13743E-03   -0.10753E-05    48   0.142E-02    0.168E-03
DAV:  15    -0.184071142858E+02   -0.65716E-04   -0.27316E-06    54   0.666E-03    0.425E-03
DAV:  16    -0.184071496737E+02   -0.35388E-04   -0.73622E-07    48   0.454E-03    0.142E-03
DAV:  17    -0.184071715772E+02   -0.21904E-04   -0.28104E-07    48   0.279E-03    0.727E-04
DAV:  18    -0.184071768817E+02   -0.53045E-05   -0.29359E-08    30   0.143E-03    0.186E-04
DAV:  19    -0.184071788639E+02   -0.19822E-05   -0.19226E-08    36   0.109E-03    0.192E-04
DAV:  20    -0.184071794321E+02   -0.56821E-06   -0.11213E-08    36   0.947E-04    0.845E-05
DAV:  21    -0.184071797084E+02   -0.27628E-06   -0.81197E-09    36   0.808E-04    0.863E-05
DAV:  22    -0.184071797440E+02   -0.35573E-07   -0.36460E-09    36   0.536E-04
   1 F= -.18448490E+02 E0= -.18448490E+02  d E =-.202582E-11
