 vasp.6.3.1 04May22 (build Jun 29 2022 13:52:15) complex                         
 executed on              LinuxNV date 2022.10.05  18:43:47
 running    6 mpi-ranks, with   12 threads/rank
 distrk:  each k-point on    6 cores,    1 groups
 distr:  one band on NCORE=   1 cores,    6 groups


--------------------------------------------------------------------------------------------------------


 INCAR:
   SYSTEM = NiAl
   ISTART = 0
   EDIFF = 1E-7
   NELMIN = 6
   IVDW = 12
   LWAVE = .FALSE.
   LCHARG = .FALSE.
   LREAL = Auto
   NCORE = 1
   LPLANE = .TRUE.
   ENCUT = 360.00 eV
   ISMEAR = 0
   SIGMA = 0.05

 POTCAR:    PAW O_GW 19Mar2012                    
 POTCAR:    PAW O_GW 19Mar2012                    
   VRHFIN =O: s2p4                                                                                  
   LEXCH  = PE                                                                                      
   EATOM  =   432.3788 eV,   31.7789 Ry                                                             
                                                                                                    
   TITEL  = PAW O_GW 19Mar2012                                                                      
   LULTRA =        F    use ultrasoft PP ?                                                          
   IUNSCR =        1    unscreen: 0-lin 1-nonlin 2-no                                               
   RPACOR =    0.800    partial core radius                                                         
   POMASS =   16.000; ZVAL   =    6.000    mass and valenz                                          
   RCORE  =    1.600    outmost cutoff radius                                                       
   RWIGS  =    1.600; RWIGS  =    0.847    wigner-seitz radius (au A)                               
   ENMAX  =  434.431; ENMIN  =  325.824 eV                                                          
   ICORE  =        3    local potential                                                             
   LCOR   =        T    correct aug charges                                                         
   LPAW   =        T    paw PP                                                                      
   EAUG   = 1139.609                                                                                
   DEXC   =    0.000                                                                                
   RMAX   =    1.629    core radius for proj-oper                                                   
   RAUG   =    1.300    factor for augmentation sphere                                              
   RDEP   =    1.652    radius for radial grids                                                     
   RDEPT  =    1.200    core radius for aug-charge                                                  
                                                                                                    
   Atomic configuration                                                                             
    5 entries                                                                                       
     n  l   j            E        occ.                                                              
     1  0  0.50      -514.6923   2.0000                                                             
     2  0  0.50       -23.9615   2.0000                                                             
     2  1  0.50        -9.0305   4.0000                                                             
     3  2  1.50        -9.5241   0.0000                                                             
     4  3  2.50        -9.5241   0.0000                                                             
   Description                                                                                      
     l       E           TYP  RCUT    TYP  RCUT                                                     
     0    -23.9615316     23  1.150                                                                 
     0    -25.3221142     23  1.150                                                                 
     0    244.9048680     23  1.300                                                                 
     1     -9.0304908     23  1.500                                                                 
     1     -6.9258396     23  1.500                                                                 
     1    122.4524340     23  1.500                                                                 
     2     13.6058260     23  1.500                                                                 
     2    190.4815640     23  1.600                                                                 
     3     54.4233040     23  1.400                                                                 
  local pseudopotential read in
  partial core-charges read in
  partial kinetic energy density read in
  kinetic energy density of atom read in
  atomic valenz-charges read in
  non local Contribution for L=            0  read in
    real space projection operators read in
  non local Contribution for L=            0  read in
    real space projection operators read in
  non local Contribution for L=            0  read in
    real space projection operators read in
  non local Contribution for L=            1  read in
    real space projection operators read in
  non local Contribution for L=            1  read in
    real space projection operators read in
  non local Contribution for L=            1  read in
    real space projection operators read in
  non local Contribution for L=            2  read in
    real space projection operators read in
  non local Contribution for L=            2  read in
    real space projection operators read in
    PAW grid and wavefunctions read in
 
   number of l-projection  operators is LMAX  =            8
   number of lm-projection operators is LMMAX =           22
 
 -----------------------------------------------------------------------------
|                                                                             |
|               ----> ADVICE to this user running VASP <----                  |
|                                                                             |
|     You have a (more or less) 'small supercell' and for smaller cells       |
|     it is recommended to use the reciprocal-space projection scheme!        |
|     The real-space optimization is not efficient for small cells and it     |
|     is also less accurate ...                                               |
|     Therefore, set LREAL=.FALSE. in the INCAR file.                         |
|                                                                             |
 -----------------------------------------------------------------------------

 Optimization of the real space projectors (new method)

 maximal supplied QI-value         = 23.62
 optimisation between [QCUT,QGAM] = [  9.68, 19.37] = [ 26.27,105.06] Ry 
 Optimized for a Real-space Cutoff    2.14 Angstroem

   l    n(q)    QCUT    max X(q) W(low)/X(q) W(high)/X(q)  e(spline) 
   0     13     9.685   116.464    0.15E-03    0.15E-03    0.47E-05
   0     13     9.685   116.329    0.15E-03    0.15E-03    0.46E-05
   0     13     9.685     0.942    0.20E-04    0.50E-04    0.17E-05
   1     12     9.685    29.046    0.36E-03    0.11E-02    0.25E-04
   1     12     9.685    24.247    0.38E-03    0.11E-02    0.26E-04
   1     12     9.685     2.381    0.13E-03    0.38E-03    0.78E-05
   2     12     9.685     2.237    0.60E-05    0.28E-04    0.14E-05
   2     12     9.685     1.850    0.17E-04    0.70E-04    0.25E-05
  PAW O_GW 19Mar2012                    :
 energy of atom  1       EATOM= -432.3788
 kinetic energy error for atom=    0.3913 (will be added to EATOM!!)
 
 
 POSCAR:  O
  positions in cartesian coordinates
  No initial velocities read in
 exchange correlation table for  LEXCH =        8
   RHO(1)=    0.500       N(1)  =     2000
   RHO(2)=  100.500       N(2)  =     4000
 


--------------------------------------------------------------------------------------------------------


 ion  position               nearest neighbor table
   1  0.000  0.000  0.000-   2 1.21   3 1.80
   2  0.083  0.000  0.000-   1 1.21   4 1.80
   3  0.000  0.000  0.124-   4 1.21   1 1.80
   4  0.083  0.000  0.124-   3 1.21   2 1.80
 
  LATTYP: Found a simple cubic cell.
 ALAT       =    14.5000000000
  
  Lattice vectors:
  
 A1 = (  14.5000000000,   0.0000000000,   0.0000000000)
 A2 = (   0.0000000000,  14.5000000000,   0.0000000000)
 A3 = (   0.0000000000,   0.0000000000,  14.5000000000)


Analysis of symmetry for initial positions (statically):
=====================================================================
 Subroutine PRICEL returns:
 Original cell was already a primitive cell.
 

 Routine SETGRP: Setting up the symmetry group for a 
 simple cubic supercell.


 Subroutine GETGRP returns: Found  8 space group operations
 (whereof  2 operations were pure point group operations)
 out of a pool of 48 trial point group operations.


The static configuration has the point symmetry C_1h.
 The point group associated with its full space group is D_2h.


Analysis of symmetry for dynamics (positions and initial velocities):
=====================================================================
 Subroutine PRICEL returns:
 Original cell was already a primitive cell.
 

 Routine SETGRP: Setting up the symmetry group for a 
 simple cubic supercell.


 Subroutine GETGRP returns: Found  8 space group operations
 (whereof  2 operations were pure point group operations)
 out of a pool of 48 trial point group operations.


The dynamic configuration has the point symmetry C_1h.
 The point group associated with its full space group is D_2h.


 Subroutine INISYM returns: Found  8 space group operations
 (whereof  2 operations are pure point group operations),
 and found     1 'primitive' translations


----------------------------------------------------------------------------------------

                                     Primitive cell                                     

  volume of cell :    3048.6250

  direct lattice vectors                    reciprocal lattice vectors
    14.500000000  0.000000000  0.000000000     0.068965517  0.000000000  0.000000000
     0.000000000 14.500000000  0.000000000     0.000000000  0.068965517  0.000000000
     0.000000000  0.000000000 14.500000000     0.000000000  0.000000000  0.068965517

  length of vectors
    14.500000000 14.500000000 14.500000000     0.068965517  0.068965517  0.068965517

  position of ions in fractional coordinates (direct lattice)
     0.000000000  0.000000000  0.000000000
     0.083241379  0.000000000  0.000000000
     0.000000000  0.000000000  0.124137931
     0.083241379  0.000000000  0.124137931

  ion indices of the primitive-cell ions
   primitive index   ion index
                 1           1
                 2           2
                 3           3
                 4           4

----------------------------------------------------------------------------------------

 
 
 KPOINTS: Automatic generation                    

Automatic generation of k-mesh.
 Grid dimensions read from file:
 generate k-points for:    1    1    1

 Generating k-lattice:

  Cartesian coordinates                     Fractional coordinates (reciprocal lattice)
     0.068965517  0.000000000  0.000000000     1.000000000  0.000000000  0.000000000
     0.000000000  0.068965517  0.000000000     0.000000000  1.000000000  0.000000000
     0.000000000  0.000000000  0.068965517     0.000000000  0.000000000  1.000000000

  Length of vectors
     0.068965517  0.068965517  0.068965517

  Shift w.r.t. Gamma in fractional coordinates (k-lattice)
     0.000000000  0.000000000  0.000000000

 
 Subroutine IBZKPT returns following result:
 ===========================================
 
 Found      1 irreducible k-points:
 
 Following reciprocal coordinates:
            Coordinates               Weight
  0.000000  0.000000  0.000000      1.000000
 
 Following cartesian coordinates:
            Coordinates               Weight
  0.000000  0.000000  0.000000      1.000000
 


--------------------------------------------------------------------------------------------------------




 Dimension of arrays:
   k-points           NKPTS =      1   k-points in BZ     NKDIM =      1   number of bands    NBANDS=     18
   number of dos      NEDOS =    301   number of ions     NIONS =      4
   non local maximal  LDIM  =      8   non local SUM 2l+1 LMDIM =     22
   total plane-waves  NPLWV = 343000
   max r-space proj   IRMAX =   4649   max aug-charges    IRDMAX=   1404
   dimension x,y,z NGX =    70 NGY =   70 NGZ =   70
   dimension x,y,z NGXF=   140 NGYF=  140 NGZF=  140
   support grid    NGXF=   140 NGYF=  140 NGZF=  140
   ions per type =               4
   NGX,Y,Z   is equivalent  to a cutoff of   8.03,  8.03,  8.03 a.u.
   NGXF,Y,Z  is equivalent  to a cutoff of  16.05, 16.05, 16.05 a.u.

 SYSTEM =  NiAl                                    
 POSCAR =   O                                      

 Startparameter for this run:
   NWRITE =      2    write-flag & timer
   PREC   = normal    normal or accurate (medium, high low for compatibility)
   ISTART =      0    job   : 0-new  1-cont  2-samecut
   ICHARG =      2    charge: 1-file 2-atom 10-const
   ISPIN  =      1    spin polarized calculation?
   LNONCOLLINEAR =      F non collinear calculations
   LSORBIT =      F    spin-orbit coupling
   INIWAV =      1    electr: 0-lowe 1-rand  2-diag
   LASPH  =      F    aspherical Exc in radial PAW
 Electronic Relaxation 1
   ENCUT  =  360.0 eV  26.46 Ry    5.14 a.u.  22.43 22.43 22.43*2*pi/ulx,y,z
   ENINI  =  360.0     initial cutoff
   ENAUG  = 1139.6 eV  augmentation charge cutoff
   NELM   =     60;   NELMIN=  6; NELMDL= -5     # of ELM steps 
   EDIFF  = 0.1E-06   stopping-criterion for ELM
   LREAL  =      T    real-space projection
   NLSPLINE    = F    spline interpolate recip. space projectors
   LCOMPAT=      F    compatible to vasp.4.4
   GGA_COMPAT  = T    GGA compatible to vasp.4.4-vasp.4.6
   LMAXPAW     = -100 max onsite density
   LMAXMIX     =    2 max onsite mixed and CHGCAR
   VOSKOWN=      0    Vosko Wilk Nusair interpolation
   ROPT   =   -0.00050
 Ionic relaxation
   EDIFFG = 0.1E-05   stopping-criterion for IOM
   NSW    =      0    number of steps for IOM
   NBLOCK =      1;   KBLOCK =      1    inner block; outer block 
   IBRION =     -1    ionic relax: 0-MD 1-quasi-New 2-CG
   NFREE  =      0    steps in history (QN), initial steepest desc. (CG)
   ISIF   =      2    stress and relaxation
   IWAVPR =     10    prediction:  0-non 1-charg 2-wave 3-comb
   ISYM   =      2    0-nonsym 1-usesym 2-fastsym
   LCORR  =      T    Harris-Foulkes like correction to forces

   POTIM  = 0.5000    time-step for ionic-motion
   TEIN   =    0.0    initial temperature
   TEBEG  =    0.0;   TEEND  =   0.0 temperature during run
   SMASS  =  -3.00    Nose mass-parameter (am)
   estimated Nose-frequenzy (Omega)   =  0.10E-29 period in steps = 0.13E+47 mass=  -0.480E-26a.u.
   SCALEE = 1.0000    scale energy and forces
   NPACO  =    256;   APACO  = 10.0  distance and # of slots for P.C.
   PSTRESS=    0.0 pullay stress

  Mass of Ions in am
   POMASS =  16.00
  Ionic Valenz
   ZVAL   =   6.00
  Atomic Wigner-Seitz radii
   RWIGS  =  -1.00
  virtual crystal weights 
   VCA    =   1.00
   NELECT =      24.0000    total number of electrons
   NUPDOWN=      -1.0000    fix difference up-down

 DOS related values:
   EMIN   =  10.00;   EMAX   =-10.00  energy-range for DOS
   EFERMI =   0.00
   ISMEAR =     0;   SIGMA  =   0.05  broadening in eV -4-tet -1-fermi 0-gaus

 Electronic relaxation 2 (details)
   IALGO  =     38    algorithm
   LDIAG  =      T    sub-space diagonalisation (order eigenvalues)
   LSUBROT=      F    optimize rotation matrix (better conditioning)
   TURBO    =      0    0=normal 1=particle mesh
   IRESTART =      0    0=no restart 2=restart with 2 vectors
   NREBOOT  =      0    no. of reboots
   NMIN     =      0    reboot dimension
   EREF     =   0.00    reference energy to select bands
   IMIX   =      4    mixing-type and parameters
     AMIX     =   0.40;   BMIX     =  1.00
     AMIX_MAG =   1.60;   BMIX_MAG =  1.00
     AMIN     =   0.10
     WC   =   100.;   INIMIX=   1;  MIXPRE=   1;  MAXMIX= -45

 Intra band minimization:
   WEIMIN = 0.0000     energy-eigenvalue tresh-hold
   EBREAK =  0.14E-08  absolut break condition
   DEPER  =   0.30     relativ break condition  

   TIME   =   0.40     timestep for ELM

  volume/ion in A,a.u.               =     762.16      5143.28
  Fermi-wavevector in a.u.,A,eV,Ry     =   0.325670  0.615426  1.443043  0.106061
  Thomas-Fermi vector in A             =   1.216865
 
 Write flags
   LWAVE        =      F    write WAVECAR
   LDOWNSAMPLE  =      F    k-point downsampling of WAVECAR
   LCHARG       =      F    write CHGCAR
   LVTOT        =      F    write LOCPOT, total local potential
   LVHAR        =      F    write LOCPOT, Hartree potential only
   LELF         =      F    write electronic localiz. function (ELF)
   LORBIT       =      0    0 simple, 1 ext, 2 COOP (PROOUT), +10 PAW based schemes


 Dipole corrections
   LMONO  =      F    monopole corrections only (constant potential shift)
   LDIPOL =      F    correct potential (dipole corrections)
   IDIPOL =      0    1-x, 2-y, 3-z, 4-all directions 
   EPSILON=  1.0000000 bulk dielectric constant

 Exchange correlation treatment:
   GGA     =    --    GGA type
   LEXCH   =     8    internal setting for exchange type
   LIBXC   =     F    Libxc                    
   VOSKOWN =     0    Vosko Wilk Nusair interpolation
   LHFCALC =     F    Hartree Fock is set to
   LHFONE  =     F    Hartree Fock one center treatment
   AEXX    =    0.0000 exact exchange contribution

 Linear response parameters
   LEPSILON=     F    determine dielectric tensor
   LRPA    =     F    only Hartree local field effects (RPA)
   LNABLA  =     F    use nabla operator in PAW spheres
   LVEL    =     F    velocity operator in full k-point grid
   CSHIFT  =0.1000    complex shift for real part using Kramers Kronig
   OMEGAMAX=  -1.0    maximum frequency
   DEG_THRESHOLD= 0.2000000E-02 threshold for treating states as degnerate
   RTIME   =   -0.100 relaxation time in fs
  (WPLASMAI=    0.000 imaginary part of plasma frequency in eV, 0.658/RTIME)
   DFIELD  = 0.0000000 0.0000000 0.0000000 field for delta impulse in time
 
  Optional k-point grid parameters
   LKPOINTS_OPT  =     F    use optional k-point grid
   KPOINTS_OPT_MODE=     1    mode for optional k-point grid
 
 Orbital magnetization related:
   ORBITALMAG=     F  switch on orbital magnetization
   LCHIMAG   =     F  perturbation theory with respect to B field
   DQ        =  0.001000  dq finite difference perturbation B field
   LLRAUG    =     F  two centre corrections for induced B field



--------------------------------------------------------------------------------------------------------


 Static calculation
 charge density and potential will be updated during run
 non-spin polarized calculation
 Variant of blocked Davidson
 Davidson routine will perform the subspace rotation
 perform sub-space diagonalisation
    after iterative eigenvector-optimisation
 modified Broyden-mixing scheme, WC =      100.0
 initial mixing is a Kerker type mixing with AMIX =  0.4000 and BMIX =      1.0000
 Hartree-type preconditioning will be used
 using additional bands             6
 real space projection scheme for non local part
 use partial core corrections
 calculate Harris-corrections to forces 
   (improved forces if not selfconsistent)
 use gradient corrections 
 use of overlap-Matrix (Vanderbilt PP)
 Gauss-broadening in eV      SIGMA  =   0.05


--------------------------------------------------------------------------------------------------------


  energy-cutoff  :      360.00
  volume of cell :     3048.63
      direct lattice vectors                 reciprocal lattice vectors
    14.500000000  0.000000000  0.000000000     0.068965517  0.000000000  0.000000000
     0.000000000 14.500000000  0.000000000     0.000000000  0.068965517  0.000000000
     0.000000000  0.000000000 14.500000000     0.000000000  0.000000000  0.068965517

  length of vectors
    14.500000000 14.500000000 14.500000000     0.068965517  0.068965517  0.068965517


 
 k-points in units of 2pi/SCALE and weight: Automatic generation                    
   0.00000000  0.00000000  0.00000000       1.000
 
 k-points in reciprocal lattice and weights: Automatic generation                    
   0.00000000  0.00000000  0.00000000       1.000
 
 position of ions in fractional coordinates (direct lattice) 
   0.00000000  0.00000000  0.00000000
   0.08324138  0.00000000  0.00000000
   0.00000000  0.00000000  0.12413793
   0.08324138  0.00000000  0.12413793
 
 position of ions in cartesian coordinates  (Angst):
   0.00000000  0.00000000  0.00000000
   1.20700000  0.00000000  0.00000000
   0.00000000  0.00000000  1.80000000
   1.20700000  0.00000000  1.80000000
 


--------------------------------------------------------------------------------------------------------


 k-point   1 :   0.0000 0.0000 0.0000  plane waves:   47257

 maximum and minimum number of plane-waves per node :     47257    47257

 maximum number of plane-waves:     47257
 maximum index in each direction: 
   IXMAX=   22   IYMAX=   22   IZMAX=   22
   IXMIN=  -22   IYMIN=  -22   IZMIN=  -22


 serial   3D FFT for wavefunctions
 parallel 3D FFT for charge:
    minimum data exchange during FFTs selected (reduces bandwidth)


 total amount of memory used by VASP MPI-rank0    90937. kBytes
=======================================================================

   base      :      30000. kBytes
   nonlr-proj:       4691. kBytes
   fftplans  :      17290. kBytes
   grid      :      36592. kBytes
   one-center:         92. kBytes
   wavefun   :       2272. kBytes
 
     INWAV:  cpu time      0.0001: real time      0.0000
 Broyden mixing: mesh for mixing (old mesh)
   NGX = 45   NGY = 45   NGZ = 45
  (NGX  =140   NGY  =140   NGZ  =140)
  gives a total of  91125 points

 initial charge density was supplied:
 charge density of overlapping atoms calculated
 number of electron      24.0000000 magnetization 
 keeping initial charge density in first step


--------------------------------------------------------------------------------------------------------


 Maximum index for non-local projection operator           500
 Maximum index for augmentation-charges           282 (set IRDMAX)


--------------------------------------------------------------------------------------------------------


 First call to EWALD:  gamma=   0.122
 Maximum number of real-space cells 3x 3x 3
 Maximum number of reciprocal cells 3x 3x 3

    FEWALD:  cpu time      0.2535: real time      0.0932


--------------------------------------- Iteration      1(   1)  ---------------------------------------


    POTLOK:  cpu time      3.4586: real time      1.7683
    SETDIJ:  cpu time      0.2591: real time      0.1167
     EDDAV:  cpu time     13.6981: real time      6.5259
       DOS:  cpu time      0.0011: real time      0.0010
    --------------------------------------------
      LOOP:  cpu time     17.4169: real time      8.4120

 eigenvalue-minimisations  :    60
 total energy-change (2. order) : 0.1716882E+03  (-0.4873078E+03)
 number of electron      24.0000000 magnetization 
 augmentation part       24.0000000 magnetization 

 Free energy of the ion-electron system (eV)
  ---------------------------------------------------
  alpha Z        PSCENC =         0.35861207
  Ewald energy   TEWEN  =      1108.61343122
  -Hartree energ DENC   =     -2557.95952344
  -exchange      EXHF   =         0.00000000
  -V(xc)+E(xc)   XCENC  =       103.61441398
  PAW double counting   =      1396.60603497    -1393.39258355
  entropy T*S    EENTRO =        -0.00000000
  eigenvalues    EBANDS =      -214.10219379
  atomic energy  EATOM  =      1727.95004229
  Solvation  Ediel_sol  =         0.00000000
  ---------------------------------------------------
  free energy    TOTEN  =       171.68823375 eV

  energy without entropy =      171.68823375  energy(sigma->0) =      171.68823375


--------------------------------------------------------------------------------------------------------




--------------------------------------- Iteration      1(   2)  ---------------------------------------


     EDDAV:  cpu time     14.1308: real time      6.9402
       DOS:  cpu time      0.0028: real time      0.0028
    --------------------------------------------
      LOOP:  cpu time     14.1336: real time      6.9429

 eigenvalue-minimisations  :    66
 total energy-change (2. order) :-0.1403304E+03  (-0.1378687E+03)
 number of electron      24.0000000 magnetization 
 augmentation part       24.0000000 magnetization 

 Free energy of the ion-electron system (eV)
  ---------------------------------------------------
  alpha Z        PSCENC =         0.35861207
  Ewald energy   TEWEN  =      1108.61343122
  -Hartree energ DENC   =     -2557.95952344
  -exchange      EXHF   =         0.00000000
  -V(xc)+E(xc)   XCENC  =       103.61441398
  PAW double counting   =      1396.60603497    -1393.39258355
  entropy T*S    EENTRO =        -0.00000000
  eigenvalues    EBANDS =      -354.43259632
  atomic energy  EATOM  =      1727.95004229
  Solvation  Ediel_sol  =         0.00000000
  ---------------------------------------------------
  free energy    TOTEN  =        31.35783122 eV

  energy without entropy =       31.35783122  energy(sigma->0) =       31.35783122


--------------------------------------------------------------------------------------------------------




--------------------------------------- Iteration      1(   3)  ---------------------------------------


     EDDAV:  cpu time     13.0461: real time      6.4473
       DOS:  cpu time      0.0002: real time      0.0002
    --------------------------------------------
      LOOP:  cpu time     13.0464: real time      6.4475

 eigenvalue-minimisations  :    60
 total energy-change (2. order) :-0.4109366E+02  (-0.3428765E+02)
 number of electron      24.0000000 magnetization 
 augmentation part       24.0000000 magnetization 

 Free energy of the ion-electron system (eV)
  ---------------------------------------------------
  alpha Z        PSCENC =         0.35861207
  Ewald energy   TEWEN  =      1108.61343122
  -Hartree energ DENC   =     -2557.95952344
  -exchange      EXHF   =         0.00000000
  -V(xc)+E(xc)   XCENC  =       103.61441398
  PAW double counting   =      1396.60603497    -1393.39258355
  entropy T*S    EENTRO =        -0.00000000
  eigenvalues    EBANDS =      -395.52625793
  atomic energy  EATOM  =      1727.95004229
  Solvation  Ediel_sol  =         0.00000000
  ---------------------------------------------------
  free energy    TOTEN  =        -9.73583039 eV

  energy without entropy =       -9.73583039  energy(sigma->0) =       -9.73583039


--------------------------------------------------------------------------------------------------------




--------------------------------------- Iteration      1(   4)  ---------------------------------------


     EDDAV:  cpu time     13.5198: real time      6.7957
       DOS:  cpu time      0.0009: real time      0.0009
    --------------------------------------------
      LOOP:  cpu time     13.5207: real time      6.7965

 eigenvalue-minimisations  :    60
 total energy-change (2. order) :-0.9064146E+01  (-0.9048747E+01)
 number of electron      24.0000000 magnetization 
 augmentation part       24.0000000 magnetization 

 Free energy of the ion-electron system (eV)
  ---------------------------------------------------
  alpha Z        PSCENC =         0.35861207
  Ewald energy   TEWEN  =      1108.61343122
  -Hartree energ DENC   =     -2557.95952344
  -exchange      EXHF   =         0.00000000
  -V(xc)+E(xc)   XCENC  =       103.61441398
  PAW double counting   =      1396.60603497    -1393.39258355
  entropy T*S    EENTRO =        -0.00000000
  eigenvalues    EBANDS =      -404.59040357
  atomic energy  EATOM  =      1727.95004229
  Solvation  Ediel_sol  =         0.00000000
  ---------------------------------------------------
  free energy    TOTEN  =       -18.79997603 eV

  energy without entropy =      -18.79997603  energy(sigma->0) =      -18.79997603


--------------------------------------------------------------------------------------------------------




--------------------------------------- Iteration      1(   5)  ---------------------------------------


     EDDAV:  cpu time     10.4823: real time      5.1129
       DOS:  cpu time      0.0003: real time      0.0003
    CHARGE:  cpu time      1.4315: real time      0.6084
    MIXING:  cpu time      0.3863: real time      0.1858
    --------------------------------------------
      LOOP:  cpu time     12.3004: real time      5.9074

 eigenvalue-minimisations  :    42
 total energy-change (2. order) :-0.1412631E+00  (-0.1353962E+00)
 number of electron      23.9999983 magnetization 
 augmentation part        2.0103523 magnetization 

 Broyden mixing:
  rms(total) = 0.63602E+01    rms(broyden)= 0.63587E+01
  rms(prec ) = 0.63631E+01
  weight for this iteration     100.00

 Free energy of the ion-electron system (eV)
  ---------------------------------------------------
  alpha Z        PSCENC =         0.35861207
  Ewald energy   TEWEN  =      1108.61343122
  -Hartree energ DENC   =     -2557.95952344
  -exchange      EXHF   =         0.00000000
  -V(xc)+E(xc)   XCENC  =       103.61441398
  PAW double counting   =      1396.60603497    -1393.39258355
  entropy T*S    EENTRO =        -0.00000000
  eigenvalues    EBANDS =      -404.73166664
  atomic energy  EATOM  =      1727.95004229
  Solvation  Ediel_sol  =         0.00000000
  ---------------------------------------------------
  free energy    TOTEN  =       -18.94123910 eV

  energy without entropy =      -18.94123910  energy(sigma->0) =      -18.94123910


--------------------------------------------------------------------------------------------------------




--------------------------------------- Iteration      1(   6)  ---------------------------------------


    POTLOK:  cpu time      3.6738: real time      1.7981
    SETDIJ:  cpu time      0.3819: real time      0.2023
     EDDAV:  cpu time     10.0917: real time      5.1706
       DOS:  cpu time      0.0001: real time      0.0001
    CHARGE:  cpu time      1.2814: real time      0.6095
    MIXING:  cpu time      0.5188: real time      0.2877
    --------------------------------------------
      LOOP:  cpu time     15.9478: real time      8.0683

 eigenvalue-minimisations  :    42
 total energy-change (2. order) : 0.5245111E+00  (-0.6266955E-01)
 number of electron      23.9999983 magnetization 
 augmentation part        1.9764722 magnetization 

 Broyden mixing:
  rms(total) = 0.39180E+01    rms(broyden)= 0.39179E+01
  rms(prec ) = 0.39196E+01
  weight for this iteration     100.00

 eigenvalues of (default mixing * dielectric matrix)
  average eigenvalue GAMMA=   2.5995
  2.5995

 Free energy of the ion-electron system (eV)
  ---------------------------------------------------
  alpha Z        PSCENC =         0.35861207
  Ewald energy   TEWEN  =      1108.61343122
  -Hartree energ DENC   =     -2562.32099278
  -exchange      EXHF   =         0.00000000
  -V(xc)+E(xc)   XCENC  =       104.20552302
  PAW double counting   =      2458.79173915    -2455.74888724
  entropy T*S    EENTRO =        -0.00000000
  eigenvalues    EBANDS =      -400.26619577
  atomic energy  EATOM  =      1727.95004229
  Solvation  Ediel_sol  =         0.00000000
  ---------------------------------------------------
  free energy    TOTEN  =       -18.41672804 eV

  energy without entropy =      -18.41672804  energy(sigma->0) =      -18.41672804


--------------------------------------------------------------------------------------------------------




--------------------------------------- Iteration      1(   7)  ---------------------------------------


    POTLOK:  cpu time      3.7273: real time      1.8413
    SETDIJ:  cpu time      0.3546: real time      0.1523
     EDDAV:  cpu time     11.2973: real time      5.6625
       DOS:  cpu time      0.0006: real time      0.0006
    CHARGE:  cpu time      1.0222: real time      0.5512
    MIXING:  cpu time      0.3622: real time      0.2603
    --------------------------------------------
      LOOP:  cpu time     16.7643: real time      8.4681

 eigenvalue-minimisations  :    48
 total energy-change (2. order) :-0.4821980E-02  (-0.9018485E-01)
 number of electron      23.9999982 magnetization 
 augmentation part        1.9406551 magnetization 

 Broyden mixing:
  rms(total) = 0.12840E+00    rms(broyden)= 0.12808E+00
  rms(prec ) = 0.13606E+00
  weight for this iteration     100.00

 eigenvalues of (default mixing * dielectric matrix)
  average eigenvalue GAMMA=   2.1596
  1.7862  2.5331

 Free energy of the ion-electron system (eV)
  ---------------------------------------------------
  alpha Z        PSCENC =         0.35861207
  Ewald energy   TEWEN  =      1108.61343122
  -Hartree energ DENC   =     -2569.30517179
  -exchange      EXHF   =         0.00000000
  -V(xc)+E(xc)   XCENC  =       104.90984577
  PAW double counting   =      5048.00060172    -5045.18012862
  entropy T*S    EENTRO =        -0.00000000
  eigenvalues    EBANDS =      -393.76878267
  atomic energy  EATOM  =      1727.95004229
  Solvation  Ediel_sol  =         0.00000000
  ---------------------------------------------------
  free energy    TOTEN  =       -18.42155002 eV

  energy without entropy =      -18.42155002  energy(sigma->0) =      -18.42155002


--------------------------------------------------------------------------------------------------------




--------------------------------------- Iteration      1(   8)  ---------------------------------------


    POTLOK:  cpu time      3.4700: real time      1.8049
    SETDIJ:  cpu time      0.3048: real time      0.1732
     EDDAV:  cpu time      9.2048: real time      4.6680
       DOS:  cpu time      0.0007: real time      0.0007
    CHARGE:  cpu time      1.3113: real time      0.6949
    MIXING:  cpu time      0.5194: real time      0.2616
    --------------------------------------------
      LOOP:  cpu time     14.8110: real time      7.6033

 eigenvalue-minimisations  :    36
 total energy-change (2. order) : 0.1589362E-01  (-0.1355259E-01)
 number of electron      23.9999982 magnetization 
 augmentation part        1.9521984 magnetization 

 Broyden mixing:
  rms(total) = 0.42751E-01    rms(broyden)= 0.42727E-01
  rms(prec ) = 0.43049E-01
  weight for this iteration     100.00

 eigenvalues of (default mixing * dielectric matrix)
  average eigenvalue GAMMA=   1.8365
  2.5952  1.4572  1.4572

 Free energy of the ion-electron system (eV)
  ---------------------------------------------------
  alpha Z        PSCENC =         0.35861207
  Ewald energy   TEWEN  =      1108.61343122
  -Hartree energ DENC   =     -2568.51552900
  -exchange      EXHF   =         0.00000000
  -V(xc)+E(xc)   XCENC  =       104.75236722
  PAW double counting   =      5009.63179381    -5006.78752038
  entropy T*S    EENTRO =        -0.00000000
  eigenvalues    EBANDS =      -394.40885364
  atomic energy  EATOM  =      1727.95004229
  Solvation  Ediel_sol  =         0.00000000
  ---------------------------------------------------
  free energy    TOTEN  =       -18.40565639 eV

  energy without entropy =      -18.40565639  energy(sigma->0) =      -18.40565639


--------------------------------------------------------------------------------------------------------




--------------------------------------- Iteration      1(   9)  ---------------------------------------


    POTLOK:  cpu time      3.5418: real time      1.8071
    SETDIJ:  cpu time      0.3704: real time      0.1798
     EDDAV:  cpu time     12.4844: real time      6.0260
       DOS:  cpu time      0.0005: real time      0.0005
    CHARGE:  cpu time      1.1497: real time      0.6137
    MIXING:  cpu time      0.4288: real time      0.2439
    --------------------------------------------
      LOOP:  cpu time     17.9755: real time      8.8709

 eigenvalue-minimisations  :    54
 total energy-change (2. order) :-0.6246811E-03  (-0.3802861E-03)
 number of electron      23.9999982 magnetization 
 augmentation part        1.9527797 magnetization 

 Broyden mixing:
  rms(total) = 0.20509E-01    rms(broyden)= 0.20505E-01
  rms(prec ) = 0.20886E-01
  weight for this iteration     100.00

 eigenvalues of (default mixing * dielectric matrix)
  average eigenvalue GAMMA=   1.7780
  2.4775  1.0733  1.7807  1.7807

 Free energy of the ion-electron system (eV)
  ---------------------------------------------------
  alpha Z        PSCENC =         0.35861207
  Ewald energy   TEWEN  =      1108.61343122
  -Hartree energ DENC   =     -2568.54974394
  -exchange      EXHF   =         0.00000000
  -V(xc)+E(xc)   XCENC  =       104.75713735
  PAW double counting   =      5014.48318666    -5011.64702885
  entropy T*S    EENTRO =        -0.00000000
  eigenvalues    EBANDS =      -394.37191787
  atomic energy  EATOM  =      1727.95004229
  Solvation  Ediel_sol  =         0.00000000
  ---------------------------------------------------
  free energy    TOTEN  =       -18.40628107 eV

  energy without entropy =      -18.40628107  energy(sigma->0) =      -18.40628107


--------------------------------------------------------------------------------------------------------




--------------------------------------- Iteration      1(  10)  ---------------------------------------


    POTLOK:  cpu time      3.5326: real time      1.7266
    SETDIJ:  cpu time      0.2853: real time      0.1511
     EDDAV:  cpu time      8.6110: real time      4.3837
       DOS:  cpu time      0.0006: real time      0.0003
    CHARGE:  cpu time      1.1695: real time      0.6142
    MIXING:  cpu time      0.5718: real time      0.3117
    --------------------------------------------
      LOOP:  cpu time     14.1709: real time      7.1877

 eigenvalue-minimisations  :    36
 total energy-change (2. order) :-0.2399190E-03  (-0.2564952E-04)
 number of electron      23.9999982 magnetization 
 augmentation part        1.9536706 magnetization 

 Broyden mixing:
  rms(total) = 0.81975E-02    rms(broyden)= 0.81965E-02
  rms(prec ) = 0.83655E-02
  weight for this iteration     100.00

 eigenvalues of (default mixing * dielectric matrix)
  average eigenvalue GAMMA=   1.6930
  2.5144  2.1670  1.8465  1.0647  0.8722

 Free energy of the ion-electron system (eV)
  ---------------------------------------------------
  alpha Z        PSCENC =         0.35861207
  Ewald energy   TEWEN  =      1108.61343122
  -Hartree energ DENC   =     -2568.47001837
  -exchange      EXHF   =         0.00000000
  -V(xc)+E(xc)   XCENC  =       104.74573861
  PAW double counting   =      4993.97790788    -4991.14878903
  entropy T*S    EENTRO =        -0.00000000
  eigenvalues    EBANDS =      -394.43344566
  atomic energy  EATOM  =      1727.95004229
  Solvation  Ediel_sol  =         0.00000000
  ---------------------------------------------------
  free energy    TOTEN  =       -18.40652099 eV

  energy without entropy =      -18.40652099  energy(sigma->0) =      -18.40652099


--------------------------------------------------------------------------------------------------------




--------------------------------------- Iteration      1(  11)  ---------------------------------------


    POTLOK:  cpu time      3.6214: real time      1.7468
    SETDIJ:  cpu time      0.1613: real time      0.0881
     EDDAV:  cpu time     13.0272: real time      6.5225
       DOS:  cpu time      0.0006: real time      0.0006
    CHARGE:  cpu time      1.1335: real time      0.5893
    MIXING:  cpu time      0.4174: real time      0.2278
    --------------------------------------------
      LOOP:  cpu time     18.3614: real time      9.1751

 eigenvalue-minimisations  :    60
 total energy-change (2. order) :-0.1395668E-03  (-0.3505935E-05)
 number of electron      23.9999982 magnetization 
 augmentation part        1.9538381 magnetization 

 Broyden mixing:
  rms(total) = 0.82541E-03    rms(broyden)= 0.82373E-03
  rms(prec ) = 0.14308E-02
  weight for this iteration     100.00

 eigenvalues of (default mixing * dielectric matrix)
  average eigenvalue GAMMA=   1.7438
  2.4865  2.0827  2.0827  1.8042  1.0796  0.9267

 Free energy of the ion-electron system (eV)
  ---------------------------------------------------
  alpha Z        PSCENC =         0.35861207
  Ewald energy   TEWEN  =      1108.61343122
  -Hartree energ DENC   =     -2568.53710434
  -exchange      EXHF   =         0.00000000
  -V(xc)+E(xc)   XCENC  =       104.74635249
  PAW double counting   =      4996.00864993    -4993.18198541
  entropy T*S    EENTRO =        -0.00000000
  eigenvalues    EBANDS =      -394.36465881
  atomic energy  EATOM  =      1727.95004229
  Solvation  Ediel_sol  =         0.00000000
  ---------------------------------------------------
  free energy    TOTEN  =       -18.40666056 eV

  energy without entropy =      -18.40666056  energy(sigma->0) =      -18.40666056


--------------------------------------------------------------------------------------------------------




--------------------------------------- Iteration      1(  12)  ---------------------------------------


    POTLOK:  cpu time      3.3846: real time      1.7308
    SETDIJ:  cpu time      0.3274: real time      0.1565
     EDDAV:  cpu time     10.5211: real time      5.3546
       DOS:  cpu time      0.0010: real time      0.0010
    CHARGE:  cpu time      1.1316: real time      0.5667
    MIXING:  cpu time      0.4706: real time      0.2846
    --------------------------------------------
      LOOP:  cpu time     15.8364: real time      8.0942

 eigenvalue-minimisations  :    48
 total energy-change (2. order) :-0.1639066E-03  (-0.1608817E-05)
 number of electron      23.9999982 magnetization 
 augmentation part        1.9536928 magnetization 

 Broyden mixing:
  rms(total) = 0.56659E-03    rms(broyden)= 0.56534E-03
  rms(prec ) = 0.99159E-03
  weight for this iteration     100.00

 eigenvalues of (default mixing * dielectric matrix)
  average eigenvalue GAMMA=   1.6706
  2.5789  2.5107  1.4431  1.4431  1.5997  0.9543  1.1645

 Free energy of the ion-electron system (eV)
  ---------------------------------------------------
  alpha Z        PSCENC =         0.35861207
  Ewald energy   TEWEN  =      1108.61343122
  -Hartree energ DENC   =     -2568.66750192
  -exchange      EXHF   =         0.00000000
  -V(xc)+E(xc)   XCENC  =       104.74934655
  PAW double counting   =      4995.70929549    -4992.88180645
  entropy T*S    EENTRO =        -0.00000000
  eigenvalues    EBANDS =      -394.23824372
  atomic energy  EATOM  =      1727.95004229
  Solvation  Ediel_sol  =         0.00000000
  ---------------------------------------------------
  free energy    TOTEN  =       -18.40682447 eV

  energy without entropy =      -18.40682447  energy(sigma->0) =      -18.40682447


--------------------------------------------------------------------------------------------------------




--------------------------------------- Iteration      1(  13)  ---------------------------------------


    POTLOK:  cpu time      3.2476: real time      1.7147
    SETDIJ:  cpu time      0.3204: real time      0.1593
     EDDAV:  cpu time     13.2560: real time      6.6554
       DOS:  cpu time      0.0010: real time      0.0009
    CHARGE:  cpu time      1.1249: real time      0.6202
    MIXING:  cpu time      0.5251: real time      0.2743
    --------------------------------------------
      LOOP:  cpu time     18.4750: real time      9.4249

 eigenvalue-minimisations  :    60
 total energy-change (2. order) :-0.8667691E-04  (-0.3759480E-06)
 number of electron      23.9999982 magnetization 
 augmentation part        1.9537445 magnetization 

 Broyden mixing:
  rms(total) = 0.10112E-02    rms(broyden)= 0.10112E-02
  rms(prec ) = 0.11677E-02
  weight for this iteration     100.00

 eigenvalues of (default mixing * dielectric matrix)
  average eigenvalue GAMMA=   1.8493
  3.8126  2.4779  2.2331  1.7755  1.3930  1.0152  1.0152  1.0718

 Free energy of the ion-electron system (eV)
  ---------------------------------------------------
  alpha Z        PSCENC =         0.35861207
  Ewald energy   TEWEN  =      1108.61343122
  -Hartree energ DENC   =     -2568.69579516
  -exchange      EXHF   =         0.00000000
  -V(xc)+E(xc)   XCENC  =       104.74911822
  PAW double counting   =      4995.92292337    -4993.09623622
  entropy T*S    EENTRO =        -0.00000000
  eigenvalues    EBANDS =      -394.20900693
  atomic energy  EATOM  =      1727.95004229
  Solvation  Ediel_sol  =         0.00000000
  ---------------------------------------------------
  free energy    TOTEN  =       -18.40691114 eV

  energy without entropy =      -18.40691114  energy(sigma->0) =      -18.40691114


--------------------------------------------------------------------------------------------------------




--------------------------------------- Iteration      1(  14)  ---------------------------------------


    POTLOK:  cpu time      3.2132: real time      1.7002
    SETDIJ:  cpu time      0.2802: real time      0.1306
     EDDAV:  cpu time     11.4958: real time      5.7043
       DOS:  cpu time      0.0001: real time      0.0001
    CHARGE:  cpu time      1.0869: real time      0.6285
    MIXING:  cpu time      0.4097: real time      0.2255
    --------------------------------------------
      LOOP:  cpu time     16.4858: real time      8.3892

 eigenvalue-minimisations  :    48
 total energy-change (2. order) :-0.1374267E-03  (-0.1075287E-05)
 number of electron      23.9999982 magnetization 
 augmentation part        1.9536977 magnetization 

 Broyden mixing:
  rms(total) = 0.16753E-03    rms(broyden)= 0.16741E-03
  rms(prec ) = 0.31025E-03
  weight for this iteration     100.00

 eigenvalues of (default mixing * dielectric matrix)
  average eigenvalue GAMMA=   1.9612
  4.6863  2.6032  2.3643  1.7999  1.7999  0.9804  0.9804  1.2182  1.2182

 Free energy of the ion-electron system (eV)
  ---------------------------------------------------
  alpha Z        PSCENC =         0.35861207
  Ewald energy   TEWEN  =      1108.61343122
  -Hartree energ DENC   =     -2568.79038066
  -exchange      EXHF   =         0.00000000
  -V(xc)+E(xc)   XCENC  =       104.75027500
  PAW double counting   =      4995.80927414    -4992.98211344
  entropy T*S    EENTRO =        -0.00000000
  eigenvalues    EBANDS =      -394.11618919
  atomic energy  EATOM  =      1727.95004229
  Solvation  Ediel_sol  =         0.00000000
  ---------------------------------------------------
  free energy    TOTEN  =       -18.40704857 eV

  energy without entropy =      -18.40704857  energy(sigma->0) =      -18.40704857


--------------------------------------------------------------------------------------------------------




--------------------------------------- Iteration      1(  15)  ---------------------------------------


    POTLOK:  cpu time      3.4665: real time      1.7362
    SETDIJ:  cpu time      0.2947: real time      0.1624
     EDDAV:  cpu time     12.6242: real time      6.0638
       DOS:  cpu time      0.0008: real time      0.0008
    CHARGE:  cpu time      1.2040: real time      0.5919
    MIXING:  cpu time      0.4415: real time      0.2432
    --------------------------------------------
      LOOP:  cpu time     18.0316: real time      8.7982

 eigenvalue-minimisations  :    54
 total energy-change (2. order) :-0.6571551E-04  (-0.2731600E-06)
 number of electron      23.9999982 magnetization 
 augmentation part        1.9536854 magnetization 

 Broyden mixing:
  rms(total) = 0.42490E-03    rms(broyden)= 0.42487E-03
  rms(prec ) = 0.44717E-03
  weight for this iteration     100.00

 eigenvalues of (default mixing * dielectric matrix)
  average eigenvalue GAMMA=   2.1275
  6.1834  3.0511  2.5133  2.2729  1.7440  1.4109  1.0961  0.9560  1.0239  1.0239

 Free energy of the ion-electron system (eV)
  ---------------------------------------------------
  alpha Z        PSCENC =         0.35861207
  Ewald energy   TEWEN  =      1108.61343122
  -Hartree energ DENC   =     -2568.81392784
  -exchange      EXHF   =         0.00000000
  -V(xc)+E(xc)   XCENC  =       104.75027463
  PAW double counting   =      4995.52118524    -4992.69393006
  entropy T*S    EENTRO =        -0.00000000
  eigenvalues    EBANDS =      -394.09280183
  atomic energy  EATOM  =      1727.95004229
  Solvation  Ediel_sol  =         0.00000000
  ---------------------------------------------------
  free energy    TOTEN  =       -18.40711429 eV

  energy without entropy =      -18.40711429  energy(sigma->0) =      -18.40711429


--------------------------------------------------------------------------------------------------------




--------------------------------------- Iteration      1(  16)  ---------------------------------------


    POTLOK:  cpu time      3.4014: real time      1.8229
    SETDIJ:  cpu time      0.4415: real time      0.1860
     EDDAV:  cpu time     11.9641: real time      6.0028
       DOS:  cpu time      0.0001: real time      0.0001
    CHARGE:  cpu time      1.3257: real time      0.6178
    MIXING:  cpu time      0.4414: real time      0.2424
    --------------------------------------------
      LOOP:  cpu time     17.5742: real time      8.8720

 eigenvalue-minimisations  :    48
 total energy-change (2. order) :-0.3538788E-04  (-0.7362160E-07)
 number of electron      23.9999982 magnetization 
 augmentation part        1.9536986 magnetization 

 Broyden mixing:
  rms(total) = 0.14202E-03    rms(broyden)= 0.14201E-03
  rms(prec ) = 0.15848E-03
  weight for this iteration     100.00

 eigenvalues of (default mixing * dielectric matrix)
  average eigenvalue GAMMA=   2.2231
  6.8774  3.3653  2.4743  2.2865  2.2865  1.7817  0.9564  1.0183  1.0183  1.1946
  1.1946

 Free energy of the ion-electron system (eV)
  ---------------------------------------------------
  alpha Z        PSCENC =         0.35861207
  Ewald energy   TEWEN  =      1108.61343122
  -Hartree energ DENC   =     -2568.81773039
  -exchange      EXHF   =         0.00000000
  -V(xc)+E(xc)   XCENC  =       104.75001734
  PAW double counting   =      4995.76893555    -4992.94179747
  entropy T*S    EENTRO =        -0.00000000
  eigenvalues    EBANDS =      -394.08866028
  atomic energy  EATOM  =      1727.95004229
  Solvation  Ediel_sol  =         0.00000000
  ---------------------------------------------------
  free energy    TOTEN  =       -18.40714967 eV

  energy without entropy =      -18.40714967  energy(sigma->0) =      -18.40714967


--------------------------------------------------------------------------------------------------------




--------------------------------------- Iteration      1(  17)  ---------------------------------------


    POTLOK:  cpu time      3.6680: real time      1.7691
    SETDIJ:  cpu time      0.2748: real time      0.1677
     EDDAV:  cpu time     11.1499: real time      6.0435
       DOS:  cpu time      0.0011: real time      0.0011
    CHARGE:  cpu time      1.6142: real time      0.8453
    MIXING:  cpu time      0.4860: real time      0.3208
    --------------------------------------------
      LOOP:  cpu time     17.1940: real time      9.1476

 eigenvalue-minimisations  :    48
 total energy-change (2. order) :-0.2190351E-04  (-0.2810363E-07)
 number of electron      23.9999982 magnetization 
 augmentation part        1.9536877 magnetization 

 Broyden mixing:
  rms(total) = 0.72673E-04    rms(broyden)= 0.72646E-04
  rms(prec ) = 0.79600E-04
  weight for this iteration     100.00

 eigenvalues of (default mixing * dielectric matrix)
  average eigenvalue GAMMA=   2.3444
  8.0140  4.2475  2.7921  2.4922  2.1299  1.7846  1.4772  1.0698  1.0698  1.1409
  0.9572  0.9572

 Free energy of the ion-electron system (eV)
  ---------------------------------------------------
  alpha Z        PSCENC =         0.35861207
  Ewald energy   TEWEN  =      1108.61343122
  -Hartree energ DENC   =     -2568.81917882
  -exchange      EXHF   =         0.00000000
  -V(xc)+E(xc)   XCENC  =       104.75003574
  PAW double counting   =      4995.69993569    -4992.87274970
  entropy T*S    EENTRO =        -0.00000000
  eigenvalues    EBANDS =      -394.08730007
  atomic energy  EATOM  =      1727.95004229
  Solvation  Ediel_sol  =         0.00000000
  ---------------------------------------------------
  free energy    TOTEN  =       -18.40717158 eV

  energy without entropy =      -18.40717158  energy(sigma->0) =      -18.40717158


--------------------------------------------------------------------------------------------------------




--------------------------------------- Iteration      1(  18)  ---------------------------------------


    POTLOK:  cpu time      3.5783: real time      1.8013
    SETDIJ:  cpu time      0.3945: real time      0.1893
     EDDAV:  cpu time      8.8146: real time      4.1990
       DOS:  cpu time      0.0004: real time      0.0004
    CHARGE:  cpu time      1.1764: real time      0.6288
    MIXING:  cpu time      0.4566: real time      0.2182
    --------------------------------------------
      LOOP:  cpu time     14.4208: real time      7.0371

 eigenvalue-minimisations  :    30
 total energy-change (2. order) :-0.5304546E-05  (-0.2935909E-08)
 number of electron      23.9999982 magnetization 
 augmentation part        1.9536964 magnetization 

 Broyden mixing:
  rms(total) = 0.18628E-04    rms(broyden)= 0.18606E-04
  rms(prec ) = 0.25194E-04
  weight for this iteration     100.00

 eigenvalues of (default mixing * dielectric matrix)
  average eigenvalue GAMMA=   2.3515
  8.3965  4.5531  2.8054  2.5256  2.2167  1.8469  1.8469  1.2738  1.1671  1.0087
  1.0087  0.9599  0.9599

 Free energy of the ion-electron system (eV)
  ---------------------------------------------------
  alpha Z        PSCENC =         0.35861207
  Ewald energy   TEWEN  =      1108.61343122
  -Hartree energ DENC   =     -2568.81751029
  -exchange      EXHF   =         0.00000000
  -V(xc)+E(xc)   XCENC  =       104.74995999
  PAW double counting   =      4995.71892675    -4992.89178368
  entropy T*S    EENTRO =        -0.00000000
  eigenvalues    EBANDS =      -394.08885523
  atomic energy  EATOM  =      1727.95004229
  Solvation  Ediel_sol  =         0.00000000
  ---------------------------------------------------
  free energy    TOTEN  =       -18.40717688 eV

  energy without entropy =      -18.40717688  energy(sigma->0) =      -18.40717688


--------------------------------------------------------------------------------------------------------




--------------------------------------- Iteration      1(  19)  ---------------------------------------


    POTLOK:  cpu time      3.7208: real time      2.0150
    SETDIJ:  cpu time      0.2816: real time      0.1434
     EDDAV:  cpu time      9.9090: real time      5.7301
       DOS:  cpu time      0.0007: real time      0.0007
    CHARGE:  cpu time      1.2201: real time      0.6846
    MIXING:  cpu time      0.5166: real time      0.2652
    --------------------------------------------
      LOOP:  cpu time     15.6489: real time      8.8390

 eigenvalue-minimisations  :    36
 total energy-change (2. order) :-0.1982168E-05  (-0.1922572E-08)
 number of electron      23.9999982 magnetization 
 augmentation part        1.9536888 magnetization 

 Broyden mixing:
  rms(total) = 0.19204E-04    rms(broyden)= 0.19189E-04
  rms(prec ) = 0.21865E-04
  weight for this iteration     100.00

 eigenvalues of (default mixing * dielectric matrix)
  average eigenvalue GAMMA=   2.3191
  8.5476  4.9482  2.9300  2.4992  2.3274  2.2480  1.7726  1.3423  1.1414  1.0377
  1.0377  0.9514  0.9514  0.7332

 Free energy of the ion-electron system (eV)
  ---------------------------------------------------
  alpha Z        PSCENC =         0.35861207
  Ewald energy   TEWEN  =      1108.61343122
  -Hartree energ DENC   =     -2568.81749037
  -exchange      EXHF   =         0.00000000
  -V(xc)+E(xc)   XCENC  =       104.74995916
  PAW double counting   =      4995.70497199    -4992.87782084
  entropy T*S    EENTRO =        -0.00000000
  eigenvalues    EBANDS =      -394.08888438
  atomic energy  EATOM  =      1727.95004229
  Solvation  Ediel_sol  =         0.00000000
  ---------------------------------------------------
  free energy    TOTEN  =       -18.40717886 eV

  energy without entropy =      -18.40717886  energy(sigma->0) =      -18.40717886


--------------------------------------------------------------------------------------------------------




--------------------------------------- Iteration      1(  20)  ---------------------------------------


    POTLOK:  cpu time      3.9033: real time      1.8344
    SETDIJ:  cpu time      0.3494: real time      0.1689
     EDDAV:  cpu time      9.4700: real time      5.0339
       DOS:  cpu time      0.0003: real time      0.0003
    CHARGE:  cpu time      1.3555: real time      0.7797
    MIXING:  cpu time      0.5816: real time      0.3200
    --------------------------------------------
      LOOP:  cpu time     15.6602: real time      8.1372

 eigenvalue-minimisations  :    36
 total energy-change (2. order) :-0.5682145E-06  (-0.1121256E-08)
 number of electron      23.9999982 magnetization 
 augmentation part        1.9536960 magnetization 

 Broyden mixing:
  rms(total) = 0.84460E-05    rms(broyden)= 0.84044E-05
  rms(prec ) = 0.11232E-04
  weight for this iteration     100.00

 eigenvalues of (default mixing * dielectric matrix)
  average eigenvalue GAMMA=   2.3630
  8.8837  5.2910  3.2005  2.5855  2.5855  2.0390  1.8957  1.8957  1.2770  1.1128
  1.0361  1.0361  0.9682  0.9682  0.6704

 Free energy of the ion-electron system (eV)
  ---------------------------------------------------
  alpha Z        PSCENC =         0.35861207
  Ewald energy   TEWEN  =      1108.61343122
  -Hartree energ DENC   =     -2568.81743373
  -exchange      EXHF   =         0.00000000
  -V(xc)+E(xc)   XCENC  =       104.74995036
  PAW double counting   =      4995.71534060    -4992.88818222
  entropy T*S    EENTRO =        -0.00000000
  eigenvalues    EBANDS =      -394.08894003
  atomic energy  EATOM  =      1727.95004229
  Solvation  Ediel_sol  =         0.00000000
  ---------------------------------------------------
  free energy    TOTEN  =       -18.40717943 eV

  energy without entropy =      -18.40717943  energy(sigma->0) =      -18.40717943


--------------------------------------------------------------------------------------------------------




--------------------------------------- Iteration      1(  21)  ---------------------------------------


    POTLOK:  cpu time      3.1480: real time      2.0298
    SETDIJ:  cpu time      0.2159: real time      0.1021
     EDDAV:  cpu time     10.5522: real time      5.5830
       DOS:  cpu time      0.0021: real time      0.0021
    CHARGE:  cpu time      1.1842: real time      0.6121
    MIXING:  cpu time      0.5237: real time      0.2868
    --------------------------------------------
      LOOP:  cpu time     15.6261: real time      8.6159

 eigenvalue-minimisations  :    36
 total energy-change (2. order) :-0.2762781E-06  (-0.8119709E-09)
 number of electron      23.9999982 magnetization 
 augmentation part        1.9536902 magnetization 

 Broyden mixing:
  rms(total) = 0.86334E-05    rms(broyden)= 0.86010E-05
  rms(prec ) = 0.96839E-05
  weight for this iteration     100.00

 eigenvalues of (default mixing * dielectric matrix)
  average eigenvalue GAMMA=   2.3655
  9.0986  5.4832  3.7138  2.6627  2.4826  2.1855  2.1855  1.7261  1.4153  1.1596
  1.0386  1.0386  0.9710  1.0324  1.0324  0.6224

 Free energy of the ion-electron system (eV)
  ---------------------------------------------------
  alpha Z        PSCENC =         0.35861207
  Ewald energy   TEWEN  =      1108.61343122
  -Hartree energ DENC   =     -2568.81818678
  -exchange      EXHF   =         0.00000000
  -V(xc)+E(xc)   XCENC  =       104.74998238
  PAW double counting   =      4995.72240440    -4992.89523870
  entropy T*S    EENTRO =        -0.00000000
  eigenvalues    EBANDS =      -394.08822660
  atomic energy  EATOM  =      1727.95004229
  Solvation  Ediel_sol  =         0.00000000
  ---------------------------------------------------
  free energy    TOTEN  =       -18.40717971 eV

  energy without entropy =      -18.40717971  energy(sigma->0) =      -18.40717971


--------------------------------------------------------------------------------------------------------




--------------------------------------- Iteration      1(  22)  ---------------------------------------


    POTLOK:  cpu time      4.1725: real time      2.0189
    SETDIJ:  cpu time      0.3044: real time      0.1286
     EDDAV:  cpu time      9.7773: real time      5.2040
       DOS:  cpu time      0.0012: real time      0.0012
    --------------------------------------------
      LOOP:  cpu time     14.2555: real time      7.3528

 eigenvalue-minimisations  :    36
 total energy-change (2. order) :-0.3557307E-07  (-0.3646008E-09)
 number of electron      23.9999982 magnetization 
 augmentation part        1.9536902 magnetization 

 Free energy of the ion-electron system (eV)
  ---------------------------------------------------
  alpha Z        PSCENC =         0.35861207
  Ewald energy   TEWEN  =      1108.61343122
  -Hartree energ DENC   =     -2568.81802760
  -exchange      EXHF   =         0.00000000
  -V(xc)+E(xc)   XCENC  =       104.74997713
  PAW double counting   =      4995.71845657    -4992.89129551
  entropy T*S    EENTRO =        -0.00000000
  eigenvalues    EBANDS =      -394.08837591
  atomic energy  EATOM  =      1727.95004229
  Solvation  Ediel_sol  =         0.00000000
  ---------------------------------------------------
  free energy    TOTEN  =       -18.40717974 eV

  energy without entropy =      -18.40717974  energy(sigma->0) =      -18.40717974


--------------------------------------------------------------------------------------------------------




 average (electrostatic) potential at core
  the test charge radii are     0.6768
  (the norm of the test charge is              1.0000)
       1-129.5944       2-129.5945       3-129.5942       4-129.5945
 
 
 
 E-fermi :  -6.3516     XC(G=0):  -0.4162     alpha+bet : -0.1136

 Fermi energy:        -6.3515974950

 k-point     1 :       0.0000    0.0000    0.0000
  band No.  band energies     occupation 
      1     -33.9241      2.00000
      2     -31.8481      2.00000
      3     -21.3206      2.00000
      4     -18.7652      2.00000
      5     -15.5422      2.00000
      6     -13.7407      2.00000
      7     -13.6394      2.00000
      8     -12.5761      2.00000
      9     -12.0502      2.00000
     10      -9.2539      2.00000
     11      -7.7904      2.00000
     12      -6.5932      2.00000
     13      -5.1692      0.00000
     14      -2.9606      0.00000
     15      -0.2397      0.00000
     16       0.3307      0.00000
     17       0.4065      0.00000
     18       0.4734      0.00000


--------------------------------------------------------------------------------------------------------


 soft charge-density along one line, spin component            1
         0         1         2         3         4         5         6         7         8         9
 total charge-density along one line
 
 pseudopotential strength for first ion, spin component:            1
 33.824  34.882  39.299   0.000  -0.013  -0.105   0.000  -0.015
 34.882  35.974  40.491   0.000  -0.013  -0.108   0.000  -0.016
 39.299  40.491  32.325   0.000  -0.003  -0.017   0.000  -0.003
  0.000   0.000   0.000  -7.097   0.000   0.000  -7.990   0.000
 -0.013  -0.013  -0.003   0.000  -7.093   0.002   0.000  -7.986
 -0.105  -0.108  -0.017   0.000   0.002  -7.252   0.000   0.003
  0.000   0.000   0.000  -7.990   0.000   0.000  -8.981   0.000
 -0.015  -0.016  -0.003   0.000  -7.986   0.003   0.000  -8.976
 -0.125  -0.129  -0.020   0.000   0.003  -8.169   0.000   0.003
 -0.000  -0.000  -0.000  -1.903  -0.000  -0.000  -3.172  -0.000
  0.073   0.076   0.038  -0.000  -1.906  -0.003  -0.000  -3.176
  0.617   0.638   0.289  -0.000  -0.003  -1.645  -0.000  -0.003
 -0.000  -0.000   0.000  -0.043   0.000  -0.000  -0.051   0.000
 -0.000  -0.000   0.000  -0.005   0.000   0.000  -0.006   0.000
 -0.001  -0.001   0.001   0.000  -0.007   0.029   0.000  -0.008
  0.001   0.001  -0.000   0.000  -0.044  -0.006   0.000  -0.052
  0.004   0.004  -0.002  -0.000  -0.000  -0.050  -0.000  -0.000
 -0.000  -0.000   0.000   0.419  -0.000   0.000   0.481  -0.000
 -0.000  -0.000   0.000   0.051  -0.000  -0.000   0.059  -0.000
 -0.085  -0.088   0.024  -0.000   0.064  -0.296  -0.000   0.074
 -0.001  -0.001  -0.003  -0.000   0.421   0.055  -0.000   0.484
  0.146   0.152  -0.046   0.000   0.002   0.515   0.000   0.002
 total augmentation occupancy for first ion, spin component:            1
 33.424 -31.046  -0.001   0.000  -2.741 -21.241   0.000   2.132  14.893   0.000   0.000  -0.144   0.000  -0.000   0.487   0.195
-31.046  30.638  -0.017   0.000   2.560  20.432  -0.000  -2.003 -14.490  -0.000   0.000   0.151  -0.000   0.000  -0.508  -0.175
 -0.001  -0.017   0.000   0.000   0.001  -0.008   0.000   0.000   0.007   0.000   0.000  -0.000  -0.000   0.000   0.001  -0.000
  0.000   0.000   0.000   3.694   0.000  -0.000  -1.954   0.000   0.000   0.037   0.000  -0.000   0.385   0.011   0.000   0.000
 -2.741   2.560   0.001   0.000   5.211  -0.093  -0.000  -3.209   0.123   0.000   0.034   0.000  -0.000  -0.000   0.137   0.299
-21.241  20.432  -0.008  -0.000  -0.093  17.195   0.000   0.112 -12.406   0.000   0.001   0.109  -0.000   0.000  -0.604   0.028
  0.000  -0.000   0.000  -1.954  -0.000   0.000   1.753   0.000   0.000  -0.002  -0.000   0.000  -0.244   0.010   0.000  -0.000
  2.132  -2.003   0.000   0.000  -3.209   0.112   0.000   2.832  -0.116  -0.000   0.003  -0.000   0.000   0.000  -0.103  -0.163
 14.893 -14.490   0.007   0.000   0.123 -12.406   0.000  -0.116   9.589   0.000  -0.000  -0.041  -0.000   0.000   0.390  -0.025
 -0.000   0.000  -0.000   0.037   0.000   0.000  -0.002  -0.000   0.000   0.001   0.000   0.000   0.003   0.000   0.000  -0.000
  0.000   0.000   0.000   0.000   0.034   0.001  -0.000   0.003  -0.000   0.000   0.001   0.000   0.000   0.000   0.000   0.003
 -0.144   0.151  -0.000  -0.000   0.000   0.109   0.000  -0.000  -0.041   0.000   0.000   0.003   0.000   0.000  -0.007   0.000
  0.000  -0.000  -0.000   0.385  -0.000  -0.000  -0.244   0.000  -0.000   0.003   0.000   0.000   0.045  -0.001  -0.000   0.000
  0.000   0.000   0.000   0.011   0.000   0.000   0.010   0.000   0.000   0.000   0.000   0.000  -0.001   0.002  -0.000   0.000
  0.487  -0.508   0.001   0.000   0.137  -0.604   0.000  -0.103   0.390   0.000   0.000  -0.007  -0.000   0.000   0.038  -0.008
  0.195  -0.175  -0.000   0.000   0.299   0.028  -0.000  -0.163  -0.025   0.000   0.003   0.000   0.000   0.000  -0.008   0.048
 -1.269   1.273  -0.001   0.000  -0.013   1.028   0.000   0.015  -0.650   0.000   0.000   0.013   0.000  -0.000  -0.046   0.002
 -0.000  -0.000  -0.000   0.013  -0.000   0.000  -0.013   0.000  -0.000  -0.000   0.000   0.000   0.002  -0.000   0.000   0.000
 -0.000   0.000   0.000  -0.000   0.000   0.000   0.000   0.000  -0.000   0.000   0.000   0.000  -0.000   0.000   0.000   0.000
  0.026  -0.029   0.000  -0.000   0.009  -0.039   0.000  -0.006   0.025   0.000   0.000  -0.001   0.000   0.000   0.003  -0.001
  0.014  -0.013  -0.000   0.000   0.007  -0.000   0.000  -0.008  -0.000   0.000  -0.000  -0.000   0.000   0.000  -0.000   0.002
 -0.079   0.082  -0.000  -0.000  -0.001   0.065   0.000   0.001  -0.040   0.000   0.000   0.001   0.000  -0.000  -0.003   0.000


------------------------ aborting loop because EDIFF is reached ----------------------------------------


    CHARGE:  cpu time      1.1598: real time      0.6444
    FORLOC:  cpu time      0.0661: real time      0.0267
    FORNL :  cpu time      1.4256: real time      0.8287
    STRESS:  cpu time      4.0329: real time      2.1998
    FORCOR:  cpu time      2.8621: real time      1.4640
    FORHAR:  cpu time      1.3824: real time      0.5942
    MIXING:  cpu time      0.4679: real time      0.2476
    OFIELD:  cpu time      0.0001: real time      0.0000

 ---------------------------------------------------------------------------------------------

         DFTD3 V3.0 Rev 1        
 IVDW         = 12
 DF pbe       
 parameters
 VDW_S6       =    1.0000
 VDW_S8       =    0.7875
 VDW_A1       =    0.4289
 VDW_A2       =    4.4407
 k1-k3        =   16.0000    1.3333   -4.0000
 VDW_RADIUS   =   50.2022 A
 VDW_CNRADIUS =   21.1671 A
 Edisp (eV)   -0.04131

 E6    (eV) :    -0.0295
 E8    (eV) :    -0.0118
 % E8        : 28.51
    FORVDW:  cpu time      0.0127: real time      0.0052

  FORCE on cell =-STRESS in cart. coord.  units (eV):
  Direction    XX          YY          ZZ          XY          YZ          ZX
  --------------------------------------------------------------------------------------
  Alpha Z     0.35861     0.35861     0.35861
  Ewald     738.75355  -273.77659   643.63616    -0.00000    -0.00000    -0.00000
  Hartree   974.47267   461.16003  1133.18502    -0.00000    -0.00000     0.00008
  E(xc)    -118.97450  -121.60848  -120.29161     0.00000    -0.00000    -0.00000
  Local   -2240.60062  -814.59815 -2402.25479     0.00000    -0.00000    -0.00011
  n-local    90.76640   100.01193    97.18728    -0.00000    -0.00000    -0.00018
  augment    53.64560    65.18950    66.45555    -0.00000     0.00000     0.00034
  Kinetic   494.70937   569.09896   573.53364    -0.00000    -0.00000     0.00008
  Fock        0.00000     0.00000     0.00000     0.00000     0.00000     0.00000
  vdW        -0.00038    -0.00011     0.02340    -0.00000     0.00000    -0.00000
  -------------------------------------------------------------------------------------
  Total      -6.86930   -14.16430    -8.16673     0.00000     0.00000    -0.00000
  in kB      -3.61010    -7.44392    -4.29195     0.00000     0.00000    -0.00000
  external pressure =       -5.12 kB  Pullay stress =        0.00 kB


 VOLUME and BASIS-vectors are now :
 -----------------------------------------------------------------------------
  energy-cutoff  :      360.00
  volume of cell :     3048.63
      direct lattice vectors                 reciprocal lattice vectors
    14.500000000  0.000000000  0.000000000     0.068965517  0.000000000  0.000000000
     0.000000000 14.500000000  0.000000000     0.000000000  0.068965517  0.000000000
     0.000000000  0.000000000 14.500000000     0.000000000  0.000000000  0.068965517

  length of vectors
    14.500000000 14.500000000 14.500000000     0.068965517  0.068965517  0.068965517


 FORCES acting on ions
    electron-ion (+dipol)            ewald-force                    non-local-force                 convergence-correction
 -----------------------------------------------------------------------------------------------
   0.346E+03 0.714E-13 0.240E+03   -.416E+03 0.341E-16 -.249E+03   0.655E+02 0.000E+00 0.655E+01   0.573E-04 0.220E-13 -.139E-05
   -.346E+03 -.244E-12 0.240E+03   0.416E+03 0.566E-16 -.249E+03   -.655E+02 0.414E-24 0.655E+01   -.573E-04 -.996E-14 -.139E-05
   0.346E+03 -.429E-13 -.240E+03   -.416E+03 -.192E-17 0.249E+03   0.655E+02 0.000E+00 -.655E+01   0.573E-04 0.354E-13 0.138E-05
   -.346E+03 -.635E-13 -.240E+03   0.416E+03 0.206E-16 0.249E+03   -.655E+02 0.310E-24 -.655E+01   -.573E-04 0.680E-14 0.138E-05
 -----------------------------------------------------------------------------------------------
   -.123E-02 -.278E-12 -.672E-03   0.000E+00 0.109E-15 -.284E-13   0.000E+00 0.724E-24 -.266E-14   -.181E-07 0.542E-13 -.759E-08
 
 
 POSITION                                       TOTAL-FORCE (eV/Angst)
 -----------------------------------------------------------------------------------
      0.00000      0.00000      0.00000        -3.613241     -0.000000     -2.021151
      1.20700      0.00000      0.00000         3.613241      0.000000     -2.021151
      0.00000      0.00000      1.80000        -3.613241     -0.000000      2.021151
      1.20700      0.00000      1.80000         3.613241      0.000000      2.021151
 -----------------------------------------------------------------------------------
    total drift:                               -0.001234     -0.000000     -0.000672


--------------------------------------------------------------------------------------------------------



  FREE ENERGIE OF THE ION-ELECTRON SYSTEM (eV)
  ---------------------------------------------------
  free  energy   TOTEN  =       -18.44848995 eV

  energy  without entropy=      -18.44848995  energy(sigma->0) =      -18.44848995
 


--------------------------------------------------------------------------------------------------------


    POTLOK:  cpu time      3.8455: real time      1.9712


--------------------------------------------------------------------------------------------------------


     LOOP+:  cpu time    363.3003: real time    184.7684
    4ORBIT:  cpu time      0.0000: real time      0.0000

 total amount of memory used by VASP MPI-rank0    90937. kBytes
=======================================================================

   base      :      30000. kBytes
   nonlr-proj:       4691. kBytes
   fftplans  :      17290. kBytes
   grid      :      36592. kBytes
   one-center:         92. kBytes
   wavefun   :       2272. kBytes
 
  
  
 General timing and accounting informations for this job:
 ========================================================
  
                  Total CPU time used (sec):      404.835
                            User time (sec):      296.373
                          System time (sec):      108.462
                         Elapsed time (sec):      206.013
  
                   Maximum memory used (kb):      205788.
                   Average memory used (kb):          N/A
  
                          Minor page faults:       361708
                          Major page faults:         1082
                 Voluntary context switches:        24793
