<?xml version="1.0" encoding="ISO-8859-1"?>
<modeling>
 <generator>
  <i name="program" type="string">vasp </i>
  <i name="version" type="string">6.3.1  </i>
  <i name="subversion" type="string">04May22 (build Jun 29 2022 13:52:15) complex                          parallel </i>
  <i name="platform" type="string">LinuxNV </i>
  <i name="date" type="string">2022 10 05 </i>
  <i name="time" type="string">18:43:47 </i>
 </generator>
 <incar>
  <i type="string" name="SYSTEM">NiAl</i>
  <i type="int" name="ISTART">     0</i>
  <i type="int" name="NELMIN">     6</i>
  <i name="EDIFF">      0.00000010</i>
  <i name="ENCUT">    360.00000000</i>
  <i type="string" name="LREAL">Auto</i>
  <i type="logical" name="LPLANE"> T  </i>
  <i type="int" name="ISMEAR">     0</i>
  <i name="SIGMA">      0.05000000</i>
  <i type="logical" name="LWAVE"> F  </i>
  <i type="logical" name="LCHARG"> F  </i>
  <i type="int" name="IVDW">    12</i>
 </incar>
 <primitive_cell>
  <structure name="primitive_cell" >
   <crystal>
    <varray name="basis" >
     <v>      14.50000000       0.00000000       0.00000000 </v>
     <v>       0.00000000      14.50000000       0.00000000 </v>
     <v>       0.00000000       0.00000000      14.50000000 </v>
    </varray>
    <i name="volume">   3048.62500000 </i>
    <varray name="rec_basis" >
     <v>       0.06896552       0.00000000       0.00000000 </v>
     <v>       0.00000000       0.06896552       0.00000000 </v>
     <v>       0.00000000       0.00000000       0.06896552 </v>
    </varray>
   </crystal>
   <varray name="positions" >
    <v>       0.00000000       0.00000000       0.00000000 </v>
    <v>       0.08324138       0.00000000       0.00000000 </v>
    <v>       0.00000000       0.00000000       0.12413793 </v>
    <v>       0.08324138       0.00000000       0.12413793 </v>
   </varray>
  </structure>
  <varray name="primitive_index" >
   <v type="int" >        1 </v>
   <v type="int" >        2 </v>
   <v type="int" >        3 </v>
   <v type="int" >        4 </v>
  </varray>
 </primitive_cell>
 <kpoints>
  <generation param="Gamma">
   <v type="int" name="divisions">       1        1        1 </v>
   <v name="usershift">      0.00000000       0.00000000       0.00000000 </v>
   <v name="genvec1">      1.00000000       0.00000000       0.00000000 </v>
   <v name="genvec2">      0.00000000       1.00000000       0.00000000 </v>
   <v name="genvec3">      0.00000000       0.00000000       1.00000000 </v>
   <v name="shift">      0.00000000       0.00000000       0.00000000 </v>
  </generation>
  <varray name="kpointlist" >
   <v>       0.00000000       0.00000000       0.00000000 </v>
  </varray>
  <varray name="weights" >
   <v>       1.00000000 </v>
  </varray>
 </kpoints>
 <parameters>
  <separator name="general" >
   <i type="string" name="SYSTEM">NiAl</i>
   <i type="logical" name="LCOMPAT"> F  </i>
  </separator>
  <separator name="electronic" >
   <i type="string" name="PREC">normal</i>
   <i name="ENMAX">    360.00000000</i>
   <i name="ENAUG">   1139.60900000</i>
   <i name="EDIFF">      0.00000010</i>
   <i type="int" name="IALGO">    38</i>
   <i type="int" name="IWAVPR">    10</i>
   <i type="int" name="NBANDS">    18</i>
   <i type="int" name="NBANDSLOW">    -1</i>
   <i type="int" name="NBANDSHIGH">    -1</i>
   <i name="NELECT">     24.00000000</i>
   <i type="int" name="TURBO">     0</i>
   <i type="int" name="IRESTART">     0</i>
   <i type="int" name="NREBOOT">     0</i>
   <i type="int" name="NMIN">     0</i>
   <i name="EREF">      0.00000000</i>
   <separator name="electronic smearing" >
    <i type="int" name="ISMEAR">     0</i>
    <i name="SIGMA">      0.05000000</i>
    <i name="KSPACING">      0.50000000</i>
    <i type="logical" name="KGAMMA"> T  </i>
    <i type="logical" name="KBLOWUP"> T  </i>
   </separator>
   <separator name="electronic projectors" >
    <i type="logical" name="LREAL"> T  </i>
    <v name="ROPT">     -0.00050000</v>
    <i type="int" name="LMAXPAW">  -100</i>
    <i type="int" name="LMAXMIX">     2</i>
    <i type="logical" name="NLSPLINE"> F  </i>
   </separator>
   <separator name="electronic startup" >
    <i type="int" name="ISTART">     0</i>
    <i type="int" name="ICHARG">     2</i>
    <i type="int" name="INIWAV">     1</i>
   </separator>
   <separator name="electronic spin" >
    <i type="int" name="ISPIN">     1</i>
    <i type="logical" name="LNONCOLLINEAR"> F  </i>
    <v name="MAGMOM">      1.00000000      1.00000000      1.00000000      1.00000000</v>
    <i name="NUPDOWN">     -1.00000000</i>
    <i type="logical" name="LSORBIT"> F  </i>
    <v name="SAXIS">      0.00000000      0.00000000      1.00000000</v>
    <i type="logical" name="LSPIRAL"> F  </i>
    <v name="QSPIRAL">      0.00000000      0.00000000      0.00000000</v>
    <i type="logical" name="LZEROZ"> F  </i>
   </separator>
   <separator name="electronic exchange-correlation" >
    <i type="logical" name="LASPH"> F  </i>
    <i type="logical" name="LMETAGGA"> F  </i>
   </separator>
   <separator name="electronic convergence" >
    <i type="int" name="NELM">    60</i>
    <i type="int" name="NELMDL">    -5</i>
    <i type="int" name="NELMIN">     6</i>
    <i name="ENINI">    360.00000000</i>
    <separator name="electronic convergence detail" >
     <i type="logical" name="LDIAG"> T  </i>
     <i type="logical" name="LSUBROT"> F  </i>
     <i name="WEIMIN">      0.00000000</i>
     <i name="EBREAK">      0.00000000</i>
     <i name="DEPER">      0.30000000</i>
     <i type="int" name="NRMM">     4</i>
     <i name="TIME">      0.40000000</i>
    </separator>
   </separator>
   <separator name="electronic mixer" >
    <i name="AMIX">      0.40000000</i>
    <i name="BMIX">      1.00000000</i>
    <i name="AMIN">      0.10000000</i>
    <i name="AMIX_MAG">      1.60000000</i>
    <i name="BMIX_MAG">      1.00000000</i>
    <separator name="electronic mixer details" >
     <i type="int" name="IMIX">     4</i>
     <i type="logical" name="MIXFIRST"> F  </i>
     <i type="int" name="MAXMIX">   -45</i>
     <i name="WC">    100.00000000</i>
     <i type="int" name="INIMIX">     1</i>
     <i type="int" name="MIXPRE">     1</i>
     <i type="int" name="MREMOVE">     5</i>
    </separator>
   </separator>
   <separator name="electronic dipolcorrection" >
    <i type="logical" name="LDIPOL"> F  </i>
    <i type="logical" name="LMONO"> F  </i>
    <i type="int" name="IDIPOL">     0</i>
    <i name="EPSILON">      1.00000000</i>
    <v name="DIPOL">   -100.00000000   -100.00000000   -100.00000000</v>
    <i name="EFIELD">      0.00000000</i>
   </separator>
  </separator>
  <separator name="grids" >
   <i type="int" name="NGX">    70</i>
   <i type="int" name="NGY">    70</i>
   <i type="int" name="NGZ">    70</i>
   <i type="int" name="NGXF">   140</i>
   <i type="int" name="NGYF">   140</i>
   <i type="int" name="NGZF">   140</i>
   <i type="logical" name="ADDGRID"> F  </i>
  </separator>
  <separator name="ionic" >
   <i type="int" name="NSW">     0</i>
   <i type="int" name="IBRION">    -1</i>
   <i type="int" name="MDALGO">     0</i>
   <i type="int" name="ISIF">     2</i>
   <i name="PSTRESS">      0.00000000</i>
   <i name="EDIFFG">      0.00000100</i>
   <i type="int" name="NFREE">     0</i>
   <i name="POTIM">      0.50000000</i>
   <i name="SMASS">     -3.00000000</i>
   <i name="SCALEE">      1.00000000</i>
  </separator>
  <separator name="ionic md" >
   <i name="TEBEG">      0.00010000</i>
   <i name="TEEND">      0.00010000</i>
   <i type="int" name="NBLOCK">     1</i>
   <i type="int" name="KBLOCK">     1</i>
   <i type="int" name="NPACO">   256</i>
   <i name="APACO">     10.00000000</i>
  </separator>
  <separator name="symmetry" >
   <i type="int" name="ISYM">     2</i>
   <i name="SYMPREC">      0.00001000</i>
  </separator>
  <separator name="dos" >
   <i type="int" name="LORBIT">     0</i>
   <v name="RWIGS">     -1.00000000</v>
   <i type="int" name="NEDOS">   301</i>
   <i name="EMIN">     10.00000000</i>
   <i name="EMAX">    -10.00000000</i>
   <i name="EFERMI">      0.00000000</i>
  </separator>
  <separator name="writing" >
   <i type="int" name="NWRITE">     2</i>
   <i type="logical" name="LWAVE"> F  </i>
   <i type="logical" name="LDOWNSAMPLE"> F  </i>
   <i type="logical" name="LCHARG"> F  </i>
   <i type="logical" name="LPARD"> F  </i>
   <i type="logical" name="LVTOT"> F  </i>
   <i type="logical" name="LVHAR"> F  </i>
   <i type="logical" name="LELF"> F  </i>
   <i type="logical" name="LOPTICS"> F  </i>
   <v name="STM">      0.00000000      0.00000000      0.00000000      0.00000000      0.00000000      0.00000000      0.00000000</v>
  </separator>
  <separator name="performance" >
   <i type="int" name="NPAR">     6</i>
   <i type="int" name="NSIM">     4</i>
   <i type="int" name="NBLK">    -1</i>
   <i type="logical" name="LPLANE"> T  </i>
   <i type="logical" name="LSCALAPACK"> T  </i>
   <i type="logical" name="LSCAAWARE"> F  </i>
   <i type="logical" name="LSCALU"> F  </i>
   <i type="logical" name="LASYNC"> F  </i>
   <i type="logical" name="LORBITALREAL"> F  </i>
  </separator>
  <separator name="miscellaneous" >
   <i type="int" name="IDIOT">     3</i>
   <i type="int" name="PHON_NSTRUCT">    -1</i>
   <i type="logical" name="LMUSIC"> F  </i>
   <v name="POMASS">     16.00000000</v>
   <v name="DARWINR">      0.00000000</v>
   <v name="DARWINV">      1.00000000</v>
   <i type="logical" name="LCORR"> T  </i>
  </separator>
  <i type="logical" name="GGA_COMPAT"> T  </i>
  <i type="logical" name="LBERRY"> F  </i>
  <i type="int" name="ICORELEVEL">     0</i>
  <i type="logical" name="LDAU"> F  </i>
  <i type="int" name="I_CONSTRAINED_M">     0</i>
  <separator name="electronic exchange-correlation" >
   <i type="string" name="GGA">--</i>
   <i type="int" name="VOSKOWN">     0</i>
   <i type="logical" name="LHFCALC"> F  </i>
   <i type="string" name="PRECFOCK"></i>
   <i type="logical" name="LSYMGRAD"> F  </i>
   <i type="logical" name="LHFONE"> F  </i>
   <i type="logical" name="LRHFCALC"> F  </i>
   <i type="logical" name="LTHOMAS"> F  </i>
   <i type="logical" name="LMODELHF"> F  </i>
   <i type="logical" name="LFOCKACE"> F  </i>
   <i name="ENCUT4O">     -1.00000000</i>
   <i type="int" name="EXXOEP">     0</i>
   <i type="int" name="FOURORBIT">     0</i>
   <i name="AEXX">      0.00000000</i>
   <i name="HFALPHA">      0.00000000</i>
   <i name="MCALPHA">      0.00000000</i>
   <i name="ALDAX">      1.00000000</i>
   <i name="AGGAX">      1.00000000</i>
   <i name="ALDAC">      1.00000000</i>
   <i name="AGGAC">      1.00000000</i>
   <i type="int" name="NKREDX">     1</i>
   <i type="int" name="NKREDY">     1</i>
   <i type="int" name="NKREDZ">     1</i>
   <i type="logical" name="SHIFTRED"> F  </i>
   <i type="logical" name="ODDONLY"> F  </i>
   <i type="logical" name="EVENONLY"> F  </i>
   <i type="int" name="LMAXFOCK">     0</i>
   <i type="int" name="NMAXFOCKAE">     0</i>
   <i type="logical" name="LFOCKAEDFT"> F  </i>
   <i name="HFSCREEN">      0.00000000</i>
   <i name="HFSCREENC">      0.00000000</i>
   <i type="int" name="NBANDSGWLOW">     0</i>
  </separator>
  <separator name="vdW DFT" >
   <i type="logical" name="LUSE_VDW"> F  </i>
   <i name="Zab_VDW">     -0.84910000</i>
   <i name="PARAM1">      0.12340000</i>
   <i name="PARAM2">      1.00000000</i>
   <i name="PARAM3">      0.00000000</i>
  </separator>
  <separator name="model GW" >
   <i type="int" name="MODEL_GW">     0</i>
   <i name="MODEL_EPS0">    457.29375000</i>
   <i name="MODEL_ALPHA">      1.00000000</i>
  </separator>
  <separator name="linear response parameters" >
   <i type="logical" name="LEPSILON"> F  </i>
   <i type="logical" name="LRPA"> F  </i>
   <i type="logical" name="LNABLA"> F  </i>
   <i type="logical" name="LVEL"> F  </i>
   <i name="CSHIFT">      0.10000000</i>
   <i name="OMEGAMAX">     -1.00000000</i>
   <i name="DEG_THRESHOLD">      0.00200000</i>
   <i name="RTIME">     -0.10000000</i>
   <i name="WPLASMAI">      0.00000000</i>
   <v name="DFIELD">      0.00000000      0.00000000      0.00000000</v>
   <v name="WPLASMA">      0.00000000      0.00000000      0.00000000      0.00000000      0.00000000      0.00000000      0.00000000      0.00000000      0.00000000</v>
  </separator>
  <separator name="orbital magnetization" >
   <i type="logical" name="NUCIND"> F  </i>
   <v name="MAGPOS">      0.00000000      0.00000000      0.00000000</v>
   <i type="logical" name="LNICSALL"> T  </i>
   <i type="logical" name="ORBITALMAG"> F  </i>
   <i type="logical" name="LMAGBLOCH"> F  </i>
   <i type="logical" name="LCHIMAG"> F  </i>
   <i type="logical" name="LGAUGE"> T  </i>
   <i type="int" name="MAGATOM">     0</i>
   <v name="MAGDIPOL">      0.00000000      0.00000000      0.00000000</v>
   <v name="AVECCONST">      0.00000000      0.00000000      0.00000000</v>
  </separator>
  <separator name="response functions" >
   <i type="logical" name="LFINITE_TEMPERATURE"> F  </i>
   <i type="logical" name="LADDER"> F  </i>
   <i type="logical" name="LRPAFORCE"> F  </i>
   <i type="logical" name="LFXC"> F  </i>
   <i type="logical" name="LHARTREE"> T  </i>
   <i type="int" name="IBSE">     0</i>
   <v type="int" name="KPOINT">    -1     0     0     0</v>
   <i type="logical" name="LTCTC"> F  </i>
   <i type="logical" name="LTCTE"> F  </i>
   <i type="logical" name="LTETE"> F  </i>
   <i type="logical" name="LTRIPLET"> F  </i>
   <i type="logical" name="LFXCEPS"> F  </i>
   <i type="logical" name="LFXHEG"> F  </i>
   <i type="int" name="NATURALO">     2</i>
   <i type="logical" name="LHOLEGF"> F  </i>
   <i type="logical" name="L2ORDER"> F  </i>
   <i type="logical" name="LDMP1"> F  </i>
   <i type="logical" name="LMP2LT"> F  </i>
   <i type="logical" name="LSMP2LT"> F  </i>
   <i type="logical" name="LGWLF"> F  </i>
   <i name="ENCUTGW">     -2.00000000</i>
   <i name="ENCUTGWSOFT">     -2.00000000</i>
   <i name="ENCUTLF">     -1.00000000</i>
   <i type="logical" name="LESF_SPLINES"> F  </i>
   <i type="int" name="LMAXMP2">    -1</i>
   <i name="SCISSOR">      0.00000000</i>
   <i type="int" name="NOMEGA">     0</i>
   <i type="int" name="NOMEGAR">     0</i>
   <i type="int" name="NBANDSGW">    -1</i>
   <i type="int" name="NBANDSO">    -1</i>
   <i type="int" name="NBANDSV">    -1</i>
   <i type="int" name="NELMGW">     1</i>
   <i type="int" name="NELMHF">     1</i>
   <i type="int" name="DIM">     3</i>
   <i type="int" name="IESPILON">     4</i>
   <i type="int" name="ANTIRES">     0</i>
   <i name="OMEGAMAX">    -30.00000000</i>
   <i name="OMEGAMIN">    -30.00000000</i>
   <i name="OMEGATL">   -200.00000000</i>
   <i type="int" name="OMEGAGRID">     0</i>
   <i name="CSHIFT">     -0.10000000</i>
   <i type="logical" name="LSELFENERGY"> F  </i>
   <i type="logical" name="LSPECTRAL"> F  </i>
   <i type="logical" name="LSPECTRALGW"> F  </i>
   <i type="logical" name="LSINGLES"> F  </i>
   <i type="logical" name="LFERMIGW"> F  </i>
   <i type="logical" name="ODDONLYGW"> F  </i>
   <i type="logical" name="EVENONLYGW"> F  </i>
   <i type="int" name="NKREDLFX">     1</i>
   <i type="int" name="NKREDLFY">     1</i>
   <i type="int" name="NKREDLFZ">     1</i>
   <i type="int" name="MAXMEM">  2800</i>
   <i type="int" name="TELESCOPE">     0</i>
   <i type="int" name="NTAUPAR">    -1</i>
   <i type="int" name="NOMEGAPAR">    -1</i>
   <i name="DAMP_NEWTON">      0.80000001</i>
   <i name="LAMBDA">      1.00000000</i>
  </separator>
  <separator name="External order field" >
   <i name="OFIELD_KAPPA">      0.00000000</i>
   <v name="OFIELD_K">      0.00000000      0.00000000      0.00000000</v>
   <i name="OFIELD_Q6_NEAR">      0.00000000</i>
   <i name="OFIELD_Q6_FAR">      0.00000000</i>
   <i name="OFIELD_A">      0.00000000</i>
  </separator>
  <separator name="optional k-points parameters" >
   <i type="int" name="KPOINTS_OPT_MODE">     1</i>
   <i type="logical" name="LKPOINTS_OPT"> F  </i>
  </separator>
 </parameters>
 <atominfo>
  <atoms>       4 </atoms>
  <types>       1 </types>
  <array name="atoms" >
   <dimension dim="1">ion</dimension>
   <field type="string">element</field>
   <field type="int">atomtype</field>
   <set>
    <rc><c>O </c><c>   1</c></rc>
    <rc><c>O </c><c>   1</c></rc>
    <rc><c>O </c><c>   1</c></rc>
    <rc><c>O </c><c>   1</c></rc>
   </set>
  </array>
  <array name="atomtypes" >
   <dimension dim="1">type</dimension>
   <field type="int">atomspertype</field>
   <field type="string">element</field>
   <field>mass</field>
   <field>valence</field>
   <field type="string">pseudopotential</field>
   <set>
    <rc><c>   4</c><c>O </c><c>     16.00000000</c><c>      6.00000000</c><c>  PAW O_GW 19Mar2012                    </c></rc>
   </set>
  </array>
 </atominfo>
 <structure name="initialpos" >
  <crystal>
   <varray name="basis" >
    <v>      14.50000000       0.00000000       0.00000000 </v>
    <v>       0.00000000      14.50000000       0.00000000 </v>
    <v>       0.00000000       0.00000000      14.50000000 </v>
   </varray>
   <i name="volume">   3048.62500000 </i>
   <varray name="rec_basis" >
    <v>       0.06896552       0.00000000       0.00000000 </v>
    <v>       0.00000000       0.06896552       0.00000000 </v>
    <v>       0.00000000       0.00000000       0.06896552 </v>
   </varray>
  </crystal>
  <varray name="positions" >
   <v>       0.00000000       0.00000000       0.00000000 </v>
   <v>       0.08324138       0.00000000       0.00000000 </v>
   <v>       0.00000000       0.00000000       0.12413793 </v>
   <v>       0.08324138       0.00000000       0.12413793 </v>
  </varray>
 </structure>
 <calculation>
  <scstep>
   <time name="dav">   13.70    6.53</time>
   <time name="total">   17.42    8.41</time>
   <energy>
    <i name="alphaZ">      0.35861207 </i>
    <i name="ewald">   1108.61343122 </i>
    <i name="hartreedc">  -2557.95952344 </i>
    <i name="XCdc">    103.61441398 </i>
    <i name="pawpsdc">   1396.60603497 </i>
    <i name="pawaedc">  -1393.39258355 </i>
    <i name="eentropy">     -0.00000000 </i>
    <i name="bandstr">   -214.10219379 </i>
    <i name="atom">   1727.95004229 </i>
    <i name="e_fr_energy">    171.68823375 </i>
    <i name="e_wo_entrp">    171.68823375 </i>
    <i name="e_0_energy">    171.68823375 </i>
   </energy>
  </scstep>
  <scstep>
   <time name="dav">   14.13    6.94</time>
   <time name="total">   14.13    6.94</time>
   <energy>
    <i name="e_fr_energy">     31.35783122 </i>
    <i name="e_wo_entrp">     31.35783122 </i>
    <i name="e_0_energy">     31.35783122 </i>
   </energy>
  </scstep>
  <scstep>
   <time name="dav">   13.05    6.45</time>
   <time name="total">   13.05    6.45</time>
   <energy>
    <i name="e_fr_energy">     -9.73583039 </i>
    <i name="e_wo_entrp">     -9.73583039 </i>
    <i name="e_0_energy">     -9.73583039 </i>
   </energy>
  </scstep>
  <scstep>
   <time name="dav">   13.52    6.80</time>
   <time name="total">   13.52    6.80</time>
   <energy>
    <i name="e_fr_energy">    -18.79997603 </i>
    <i name="e_wo_entrp">    -18.79997603 </i>
    <i name="e_0_energy">    -18.79997603 </i>
   </energy>
  </scstep>
  <scstep>
   <time name="dav">   10.48    5.11</time>
   <time name="total">   12.30    5.91</time>
   <energy>
    <i name="e_fr_energy">    -18.94123910 </i>
    <i name="e_wo_entrp">    -18.94123910 </i>
    <i name="e_0_energy">    -18.94123910 </i>
   </energy>
  </scstep>
  <scstep>
   <time name="dav">   10.09    5.17</time>
   <time name="total">   15.95    8.07</time>
   <energy>
    <i name="e_fr_energy">    -18.41672804 </i>
    <i name="e_wo_entrp">    -18.41672804 </i>
    <i name="e_0_energy">    -18.41672804 </i>
   </energy>
  </scstep>
  <scstep>
   <time name="dav">   11.30    5.66</time>
   <time name="total">   16.76    8.47</time>
   <energy>
    <i name="e_fr_energy">    -18.42155002 </i>
    <i name="e_wo_entrp">    -18.42155002 </i>
    <i name="e_0_energy">    -18.42155002 </i>
   </energy>
  </scstep>
  <scstep>
   <time name="dav">    9.20    4.67</time>
   <time name="total">   14.81    7.60</time>
   <energy>
    <i name="e_fr_energy">    -18.40565639 </i>
    <i name="e_wo_entrp">    -18.40565639 </i>
    <i name="e_0_energy">    -18.40565639 </i>
   </energy>
  </scstep>
  <scstep>
   <time name="dav">   12.48    6.03</time>
   <time name="total">   17.98    8.87</time>
   <energy>
    <i name="e_fr_energy">    -18.40628107 </i>
    <i name="e_wo_entrp">    -18.40628107 </i>
    <i name="e_0_energy">    -18.40628107 </i>
   </energy>
  </scstep>
  <scstep>
   <time name="dav">    8.61    4.38</time>
   <time name="total">   14.17    7.19</time>
   <energy>
    <i name="e_fr_energy">    -18.40652099 </i>
    <i name="e_wo_entrp">    -18.40652099 </i>
    <i name="e_0_energy">    -18.40652099 </i>
   </energy>
  </scstep>
  <scstep>
   <time name="dav">   13.03    6.52</time>
   <time name="total">   18.36    9.18</time>
   <energy>
    <i name="e_fr_energy">    -18.40666056 </i>
    <i name="e_wo_entrp">    -18.40666056 </i>
    <i name="e_0_energy">    -18.40666056 </i>
   </energy>
  </scstep>
  <scstep>
   <time name="dav">   10.52    5.35</time>
   <time name="total">   15.84    8.09</time>
   <energy>
    <i name="e_fr_energy">    -18.40682447 </i>
    <i name="e_wo_entrp">    -18.40682447 </i>
    <i name="e_0_energy">    -18.40682447 </i>
   </energy>
  </scstep>
  <scstep>
   <time name="dav">   13.26    6.66</time>
   <time name="total">   18.48    9.42</time>
   <energy>
    <i name="e_fr_energy">    -18.40691114 </i>
    <i name="e_wo_entrp">    -18.40691114 </i>
    <i name="e_0_energy">    -18.40691114 </i>
   </energy>
  </scstep>
  <scstep>
   <time name="dav">   11.50    5.70</time>
   <time name="total">   16.49    8.39</time>
   <energy>
    <i name="e_fr_energy">    -18.40704857 </i>
    <i name="e_wo_entrp">    -18.40704857 </i>
    <i name="e_0_energy">    -18.40704857 </i>
   </energy>
  </scstep>
  <scstep>
   <time name="dav">   12.62    6.06</time>
   <time name="total">   18.03    8.80</time>
   <energy>
    <i name="e_fr_energy">    -18.40711429 </i>
    <i name="e_wo_entrp">    -18.40711429 </i>
    <i name="e_0_energy">    -18.40711429 </i>
   </energy>
  </scstep>
  <scstep>
   <time name="dav">   11.96    6.00</time>
   <time name="total">   17.57    8.87</time>
   <energy>
    <i name="e_fr_energy">    -18.40714967 </i>
    <i name="e_wo_entrp">    -18.40714967 </i>
    <i name="e_0_energy">    -18.40714967 </i>
   </energy>
  </scstep>
  <scstep>
   <time name="dav">   11.15    6.04</time>
   <time name="total">   17.19    9.15</time>
   <energy>
    <i name="e_fr_energy">    -18.40717158 </i>
    <i name="e_wo_entrp">    -18.40717158 </i>
    <i name="e_0_energy">    -18.40717158 </i>
   </energy>
  </scstep>
  <scstep>
   <time name="dav">    8.81    4.20</time>
   <time name="total">   14.42    7.04</time>
   <energy>
    <i name="e_fr_energy">    -18.40717688 </i>
    <i name="e_wo_entrp">    -18.40717688 </i>
    <i name="e_0_energy">    -18.40717688 </i>
   </energy>
  </scstep>
  <scstep>
   <time name="dav">    9.91    5.73</time>
   <time name="total">   15.65    8.84</time>
   <energy>
    <i name="e_fr_energy">    -18.40717886 </i>
    <i name="e_wo_entrp">    -18.40717886 </i>
    <i name="e_0_energy">    -18.40717886 </i>
   </energy>
  </scstep>
  <scstep>
   <time name="dav">    9.47    5.03</time>
   <time name="total">   15.66    8.14</time>
   <energy>
    <i name="e_fr_energy">    -18.40717943 </i>
    <i name="e_wo_entrp">    -18.40717943 </i>
    <i name="e_0_energy">    -18.40717943 </i>
   </energy>
  </scstep>
  <scstep>
   <time name="dav">   10.55    5.58</time>
   <time name="total">   15.63    8.62</time>
   <energy>
    <i name="e_fr_energy">    -18.40717971 </i>
    <i name="e_wo_entrp">    -18.40717971 </i>
    <i name="e_0_energy">    -18.40717971 </i>
   </energy>
  </scstep>
  <scstep>
   <time name="dav">    9.78    5.20</time>
   <time name="total">   14.26    7.35</time>
   <energy>
    <i name="alphaZ">      0.35861207 </i>
    <i name="ewald">   1108.61343122 </i>
    <i name="hartreedc">  -2568.81802760 </i>
    <i name="XCdc">    104.74997713 </i>
    <i name="pawpsdc">   4995.71845657 </i>
    <i name="pawaedc">  -4992.89129551 </i>
    <i name="eentropy">     -0.00000000 </i>
    <i name="bandstr">   -394.08837591 </i>
    <i name="atom">   1727.95004229 </i>
    <i name="e_fr_energy">    -18.40717974 </i>
    <i name="e_wo_entrp">    -18.40717974 </i>
    <i name="e_0_energy">    -18.40717974 </i>
   </energy>
  </scstep>
  <structure>
   <crystal>
    <varray name="basis" >
     <v>      14.50000000       0.00000000       0.00000000 </v>
     <v>       0.00000000      14.50000000       0.00000000 </v>
     <v>       0.00000000       0.00000000      14.50000000 </v>
    </varray>
    <i name="volume">   3048.62500000 </i>
    <varray name="rec_basis" >
     <v>       0.06896552       0.00000000       0.00000000 </v>
     <v>       0.00000000       0.06896552       0.00000000 </v>
     <v>       0.00000000       0.00000000       0.06896552 </v>
    </varray>
   </crystal>
   <varray name="positions" >
    <v>       0.00000000       0.00000000       0.00000000 </v>
    <v>       0.08324138       0.00000000       0.00000000 </v>
    <v>       0.00000000       0.00000000       0.12413793 </v>
    <v>       0.08324138       0.00000000       0.12413793 </v>
   </varray>
  </structure>
  <varray name="forces" >
   <v>      -3.61324088      -0.00000000      -2.02115077 </v>
   <v>       3.61324088       0.00000000      -2.02115077 </v>
   <v>      -3.61324088      -0.00000000       2.02115077 </v>
   <v>       3.61324088       0.00000000       2.02115077 </v>
  </varray>
  <varray name="stress" >
   <v>      -3.61009735      -0.00000000      -0.00000000 </v>
   <v>       0.00000000      -7.44392248       0.00000000 </v>
   <v>       0.00000000       0.00000000      -4.29195353 </v>
  </varray>
  <energy>
   <i name="e_fr_energy">    -18.44848995 </i>
   <i name="e_wo_entrp">    -18.44848995 </i>
   <i name="e_0_energy">    -18.44848995 </i>
  </energy>
  <time name="totalsc">  363.30  184.77</time>
  <eigenvalues>
   <array>
    <dimension dim="1">band</dimension>
    <dimension dim="2">kpoint</dimension>
    <dimension dim="3">spin</dimension>
    <field>eigene</field>
    <field>occ</field>
    <set>
     <set comment="spin 1">
      <set comment="kpoint 1">
       <r>  -33.9241    1.0000 </r>
       <r>  -31.8481    1.0000 </r>
       <r>  -21.3206    1.0000 </r>
       <r>  -18.7652    1.0000 </r>
       <r>  -15.5422    1.0000 </r>
       <r>  -13.7407    1.0000 </r>
       <r>  -13.6394    1.0000 </r>
       <r>  -12.5761    1.0000 </r>
       <r>  -12.0502    1.0000 </r>
       <r>   -9.2539    1.0000 </r>
       <r>   -7.7904    1.0000 </r>
       <r>   -6.5932    1.0000 </r>
       <r>   -5.1692    0.0000 </r>
       <r>   -2.9606    0.0000 </r>
       <r>   -0.2397    0.0000 </r>
       <r>    0.3307    0.0000 </r>
       <r>    0.4065    0.0000 </r>
       <r>    0.4734    0.0000 </r>
      </set>
     </set>
    </set>
   </array>
  </eigenvalues>
  <separator name="orbital magnetization" >
   <v name="MAGDIPOLOUT">      0.00000000      0.00000000      0.00000000</v>
  </separator>
  <dos>
   <i name="efermi">     -6.35159750 </i>
   <total>
    <array>
     <dimension dim="1">gridpoints</dimension>
     <dimension dim="2">spin</dimension>
     <field>energy</field>
     <field>total</field>
     <field>integrated</field>
     <set>
      <set comment="spin 1">
       <r>   -35.6439     0.0000     0.0000 </r>
       <r>   -35.5178     0.0000     0.0000 </r>
       <r>   -35.3917     0.0000     0.0000 </r>
       <r>   -35.2656     0.0000     0.0000 </r>
       <r>   -35.1394     0.0000     0.0000 </r>
       <r>   -35.0133     0.0000     0.0000 </r>
       <r>   -34.8872     0.0000     0.0000 </r>
       <r>   -34.7611     0.0000     0.0000 </r>
       <r>   -34.6350     0.0000     0.0000 </r>
       <r>   -34.5088     0.0000     0.0000 </r>
       <r>   -34.3827     0.0000     0.0000 </r>
       <r>   -34.2566     0.0000     0.0000 </r>
       <r>   -34.1305     0.0000     0.0000 </r>
       <r>   -34.0043     0.1839     0.0232 </r>
       <r>   -33.8782    14.1308     1.8054 </r>
       <r>   -33.7521     1.5426     2.0000 </r>
       <r>   -33.6260     0.0000     2.0000 </r>
       <r>   -33.4998     0.0000     2.0000 </r>
       <r>   -33.3737     0.0000     2.0000 </r>
       <r>   -33.2476     0.0000     2.0000 </r>
       <r>   -33.1215     0.0000     2.0000 </r>
       <r>   -32.9953     0.0000     2.0000 </r>
       <r>   -32.8692     0.0000     2.0000 </r>
       <r>   -32.7431     0.0000     2.0000 </r>
       <r>   -32.6170     0.0000     2.0000 </r>
       <r>   -32.4908     0.0000     2.0000 </r>
       <r>   -32.3647     0.0000     2.0000 </r>
       <r>   -32.2386     0.0000     2.0000 </r>
       <r>   -32.1125     0.0000     2.0000 </r>
       <r>   -31.9863     0.0007     2.0001 </r>
       <r>   -31.8602     5.8082     2.7326 </r>
       <r>   -31.7341    10.0385     3.9987 </r>
       <r>   -31.6080     0.0100     4.0000 </r>
       <r>   -31.4818     0.0000     4.0000 </r>
       <r>   -31.3557     0.0000     4.0000 </r>
       <r>   -31.2296     0.0000     4.0000 </r>
       <r>   -31.1035     0.0000     4.0000 </r>
       <r>   -30.9774     0.0000     4.0000 </r>
       <r>   -30.8512     0.0000     4.0000 </r>
       <r>   -30.7251     0.0000     4.0000 </r>
       <r>   -30.5990     0.0000     4.0000 </r>
       <r>   -30.4729     0.0000     4.0000 </r>
       <r>   -30.3467     0.0000     4.0000 </r>
       <r>   -30.2206     0.0000     4.0000 </r>
       <r>   -30.0945     0.0000     4.0000 </r>
       <r>   -29.9684     0.0000     4.0000 </r>
       <r>   -29.8422     0.0000     4.0000 </r>
       <r>   -29.7161     0.0000     4.0000 </r>
       <r>   -29.5900     0.0000     4.0000 </r>
       <r>   -29.4639     0.0000     4.0000 </r>
       <r>   -29.3377     0.0000     4.0000 </r>
       <r>   -29.2116     0.0000     4.0000 </r>
       <r>   -29.0855     0.0000     4.0000 </r>
       <r>   -28.9594     0.0000     4.0000 </r>
       <r>   -28.8332     0.0000     4.0000 </r>
       <r>   -28.7071     0.0000     4.0000 </r>
       <r>   -28.5810     0.0000     4.0000 </r>
       <r>   -28.4549     0.0000     4.0000 </r>
       <r>   -28.3287     0.0000     4.0000 </r>
       <r>   -28.2026     0.0000     4.0000 </r>
       <r>   -28.0765     0.0000     4.0000 </r>
       <r>   -27.9504     0.0000     4.0000 </r>
       <r>   -27.8242     0.0000     4.0000 </r>
       <r>   -27.6981     0.0000     4.0000 </r>
       <r>   -27.5720     0.0000     4.0000 </r>
       <r>   -27.4459     0.0000     4.0000 </r>
       <r>   -27.3197     0.0000     4.0000 </r>
       <r>   -27.1936     0.0000     4.0000 </r>
       <r>   -27.0675     0.0000     4.0000 </r>
       <r>   -26.9414     0.0000     4.0000 </r>
       <r>   -26.8153     0.0000     4.0000 </r>
       <r>   -26.6891     0.0000     4.0000 </r>
       <r>   -26.5630     0.0000     4.0000 </r>
       <r>   -26.4369     0.0000     4.0000 </r>
       <r>   -26.3108     0.0000     4.0000 </r>
       <r>   -26.1846     0.0000     4.0000 </r>
       <r>   -26.0585     0.0000     4.0000 </r>
       <r>   -25.9324     0.0000     4.0000 </r>
       <r>   -25.8063     0.0000     4.0000 </r>
       <r>   -25.6801     0.0000     4.0000 </r>
       <r>   -25.5540     0.0000     4.0000 </r>
       <r>   -25.4279     0.0000     4.0000 </r>
       <r>   -25.3018     0.0000     4.0000 </r>
       <r>   -25.1756     0.0000     4.0000 </r>
       <r>   -25.0495     0.0000     4.0000 </r>
       <r>   -24.9234     0.0000     4.0000 </r>
       <r>   -24.7973     0.0000     4.0000 </r>
       <r>   -24.6711     0.0000     4.0000 </r>
       <r>   -24.5450     0.0000     4.0000 </r>
       <r>   -24.4189     0.0000     4.0000 </r>
       <r>   -24.2928     0.0000     4.0000 </r>
       <r>   -24.1666     0.0000     4.0000 </r>
       <r>   -24.0405     0.0000     4.0000 </r>
       <r>   -23.9144     0.0000     4.0000 </r>
       <r>   -23.7883     0.0000     4.0000 </r>
       <r>   -23.6621     0.0000     4.0000 </r>
       <r>   -23.5360     0.0000     4.0000 </r>
       <r>   -23.4099     0.0000     4.0000 </r>
       <r>   -23.2838     0.0000     4.0000 </r>
       <r>   -23.1576     0.0000     4.0000 </r>
       <r>   -23.0315     0.0000     4.0000 </r>
       <r>   -22.9054     0.0000     4.0000 </r>
       <r>   -22.7793     0.0000     4.0000 </r>
       <r>   -22.6532     0.0000     4.0000 </r>
       <r>   -22.5270     0.0000     4.0000 </r>
       <r>   -22.4009     0.0000     4.0000 </r>
       <r>   -22.2748     0.0000     4.0000 </r>
       <r>   -22.1487     0.0000     4.0000 </r>
       <r>   -22.0225     0.0000     4.0000 </r>
       <r>   -21.8964     0.0000     4.0000 </r>
       <r>   -21.7703     0.0000     4.0000 </r>
       <r>   -21.6442     0.0000     4.0000 </r>
       <r>   -21.5180     0.0000     4.0000 </r>
       <r>   -21.3919     0.3460     4.0436 </r>
       <r>   -21.2658    14.5505     5.8788 </r>
       <r>   -21.1397     0.9609     6.0000 </r>
       <r>   -21.0135     0.0000     6.0000 </r>
       <r>   -20.8874     0.0000     6.0000 </r>
       <r>   -20.7613     0.0000     6.0000 </r>
       <r>   -20.6352     0.0000     6.0000 </r>
       <r>   -20.5090     0.0000     6.0000 </r>
       <r>   -20.3829     0.0000     6.0000 </r>
       <r>   -20.2568     0.0000     6.0000 </r>
       <r>   -20.1307     0.0000     6.0000 </r>
       <r>   -20.0045     0.0000     6.0000 </r>
       <r>   -19.8784     0.0000     6.0000 </r>
       <r>   -19.7523     0.0000     6.0000 </r>
       <r>   -19.6262     0.0000     6.0000 </r>
       <r>   -19.5000     0.0000     6.0000 </r>
       <r>   -19.3739     0.0000     6.0000 </r>
       <r>   -19.2478     0.0000     6.0000 </r>
       <r>   -19.1217     0.0000     6.0000 </r>
       <r>   -18.9956     0.0000     6.0000 </r>
       <r>   -18.8694     0.0254     6.0032 </r>
       <r>   -18.7433    11.5896     7.4649 </r>
       <r>   -18.6172     4.2421     8.0000 </r>
       <r>   -18.4911     0.0002     8.0000 </r>
       <r>   -18.3649     0.0000     8.0000 </r>
       <r>   -18.2388     0.0000     8.0000 </r>
       <r>   -18.1127     0.0000     8.0000 </r>
       <r>   -17.9866     0.0000     8.0000 </r>
       <r>   -17.8604     0.0000     8.0000 </r>
       <r>   -17.7343     0.0000     8.0000 </r>
       <r>   -17.6082     0.0000     8.0000 </r>
       <r>   -17.4821     0.0000     8.0000 </r>
       <r>   -17.3559     0.0000     8.0000 </r>
       <r>   -17.2298     0.0000     8.0000 </r>
       <r>   -17.1037     0.0000     8.0000 </r>
       <r>   -16.9776     0.0000     8.0000 </r>
       <r>   -16.8514     0.0000     8.0000 </r>
       <r>   -16.7253     0.0000     8.0000 </r>
       <r>   -16.5992     0.0000     8.0000 </r>
       <r>   -16.4731     0.0000     8.0000 </r>
       <r>   -16.3469     0.0000     8.0000 </r>
       <r>   -16.2208     0.0000     8.0000 </r>
       <r>   -16.0947     0.0000     8.0000 </r>
       <r>   -15.9686     0.0000     8.0000 </r>
       <r>   -15.8424     0.0000     8.0000 </r>
       <r>   -15.7163     0.0000     8.0000 </r>
       <r>   -15.5902     1.3835     8.1745 </r>
       <r>   -15.4641    14.2587     9.9729 </r>
       <r>   -15.3379     0.2152    10.0000 </r>
       <r>   -15.2118     0.0000    10.0000 </r>
       <r>   -15.0857     0.0000    10.0000 </r>
       <r>   -14.9596     0.0000    10.0000 </r>
       <r>   -14.8335     0.0000    10.0000 </r>
       <r>   -14.7073     0.0000    10.0000 </r>
       <r>   -14.5812     0.0000    10.0000 </r>
       <r>   -14.4551     0.0000    10.0000 </r>
       <r>   -14.3290     0.0000    10.0000 </r>
       <r>   -14.2028     0.0000    10.0000 </r>
       <r>   -14.0767     0.0000    10.0000 </r>
       <r>   -13.9506     0.0000    10.0000 </r>
       <r>   -13.8245     0.1416    10.0179 </r>
       <r>   -13.6983    14.6466    11.8652 </r>
       <r>   -13.5722    16.4727    13.9428 </r>
       <r>   -13.4461     0.4538    14.0000 </r>
       <r>   -13.3200     0.0000    14.0000 </r>
       <r>   -13.1938     0.0000    14.0000 </r>
       <r>   -13.0677     0.0000    14.0000 </r>
       <r>   -12.9416     0.0000    14.0000 </r>
       <r>   -12.8155     0.0000    14.0000 </r>
       <r>   -12.6893     0.0107    14.0014 </r>
       <r>   -12.5632    10.1661    15.2835 </r>
       <r>   -12.4371     5.6799    15.9999 </r>
       <r>   -12.3110     0.0007    16.0000 </r>
       <r>   -12.1848     0.0011    16.0001 </r>
       <r>   -12.0587     6.4186    16.8097 </r>
       <r>   -11.9326     9.4307    17.9991 </r>
       <r>   -11.8065     0.0070    18.0000 </r>
       <r>   -11.6803     0.0000    18.0000 </r>
       <r>   -11.5542     0.0000    18.0000 </r>
       <r>   -11.4281     0.0000    18.0000 </r>
       <r>   -11.3020     0.0000    18.0000 </r>
       <r>   -11.1758     0.0000    18.0000 </r>
       <r>   -11.0497     0.0000    18.0000 </r>
       <r>   -10.9236     0.0000    18.0000 </r>
       <r>   -10.7975     0.0000    18.0000 </r>
       <r>   -10.6714     0.0000    18.0000 </r>
       <r>   -10.5452     0.0000    18.0000 </r>
       <r>   -10.4191     0.0000    18.0000 </r>
       <r>   -10.2930     0.0000    18.0000 </r>
       <r>   -10.1669     0.0000    18.0000 </r>
       <r>   -10.0407     0.0000    18.0000 </r>
       <r>    -9.9146     0.0000    18.0000 </r>
       <r>    -9.7885     0.0000    18.0000 </r>
       <r>    -9.6624     0.0000    18.0000 </r>
       <r>    -9.5362     0.0000    18.0000 </r>
       <r>    -9.4101     0.0001    18.0000 </r>
       <r>    -9.2840     3.1312    18.3949 </r>
       <r>    -9.1579    12.6739    19.9934 </r>
       <r>    -9.0317     0.0523    20.0000 </r>
       <r>    -8.9056     0.0000    20.0000 </r>
       <r>    -8.7795     0.0000    20.0000 </r>
       <r>    -8.6534     0.0000    20.0000 </r>
       <r>    -8.5272     0.0000    20.0000 </r>
       <r>    -8.4011     0.0000    20.0000 </r>
       <r>    -8.2750     0.0000    20.0000 </r>
       <r>    -8.1489     0.0000    20.0000 </r>
       <r>    -8.0227     0.0000    20.0000 </r>
       <r>    -7.8966     0.0211    20.0027 </r>
       <r>    -7.7705    11.2915    21.4268 </r>
       <r>    -7.6444     4.5445    22.0000 </r>
       <r>    -7.5182     0.0003    22.0000 </r>
       <r>    -7.3921     0.0000    22.0000 </r>
       <r>    -7.2660     0.0000    22.0000 </r>
       <r>    -7.1399     0.0000    22.0000 </r>
       <r>    -7.0137     0.0000    22.0000 </r>
       <r>    -6.8876     0.0000    22.0000 </r>
       <r>    -6.7615     0.0000    22.0000 </r>
       <r>    -6.6354     1.8503    22.2334 </r>
       <r>    -6.5093    13.8682    23.9825 </r>
       <r>    -6.3831     0.1389    24.0000 </r>
       <r>    -6.2570     0.0000    24.0000 </r>
       <r>    -6.1309     0.0000    24.0000 </r>
       <r>    -6.0048     0.0000    24.0000 </r>
       <r>    -5.8786     0.0000    24.0000 </r>
       <r>    -5.7525     0.0000    24.0000 </r>
       <r>    -5.6264     0.0000    24.0000 </r>
       <r>    -5.5003     0.0000    24.0000 </r>
       <r>    -5.3741     0.0000    24.0000 </r>
       <r>    -5.2480     0.2052    24.0259 </r>
       <r>    -5.1219    14.2213    25.8195 </r>
       <r>    -4.9958     1.4309    26.0000 </r>
       <r>    -4.8696     0.0000    26.0000 </r>
       <r>    -4.7435     0.0000    26.0000 </r>
       <r>    -4.6174     0.0000    26.0000 </r>
       <r>    -4.4913     0.0000    26.0000 </r>
       <r>    -4.3651     0.0000    26.0000 </r>
       <r>    -4.2390     0.0000    26.0000 </r>
       <r>    -4.1129     0.0000    26.0000 </r>
       <r>    -3.9868     0.0000    26.0000 </r>
       <r>    -3.8606     0.0000    26.0000 </r>
       <r>    -3.7345     0.0000    26.0000 </r>
       <r>    -3.6084     0.0000    26.0000 </r>
       <r>    -3.4823     0.0000    26.0000 </r>
       <r>    -3.3561     0.0000    26.0000 </r>
       <r>    -3.2300     0.0000    26.0000 </r>
       <r>    -3.1039     0.0004    26.0001 </r>
       <r>    -2.9778     4.9753    26.6276 </r>
       <r>    -2.8517    10.8654    27.9979 </r>
       <r>    -2.7255     0.0163    28.0000 </r>
       <r>    -2.5994     0.0000    28.0000 </r>
       <r>    -2.4733     0.0000    28.0000 </r>
       <r>    -2.3472     0.0000    28.0000 </r>
       <r>    -2.2210     0.0000    28.0000 </r>
       <r>    -2.0949     0.0000    28.0000 </r>
       <r>    -1.9688     0.0000    28.0000 </r>
       <r>    -1.8427     0.0000    28.0000 </r>
       <r>    -1.7165     0.0000    28.0000 </r>
       <r>    -1.5904     0.0000    28.0000 </r>
       <r>    -1.4643     0.0000    28.0000 </r>
       <r>    -1.3382     0.0000    28.0000 </r>
       <r>    -1.2120     0.0000    28.0000 </r>
       <r>    -1.0859     0.0000    28.0000 </r>
       <r>    -0.9598     0.0000    28.0000 </r>
       <r>    -0.8337     0.0000    28.0000 </r>
       <r>    -0.7075     0.0000    28.0000 </r>
       <r>    -0.5814     0.0000    28.0000 </r>
       <r>    -0.4553     0.0000    28.0000 </r>
       <r>    -0.3292     0.0900    28.0113 </r>
       <r>    -0.2030    13.3853    29.6996 </r>
       <r>    -0.0769     2.3821    30.0000 </r>
       <r>     0.0492     0.0000    30.0000 </r>
       <r>     0.1753     0.0001    30.0000 </r>
       <r>     0.3015     3.2619    30.4114 </r>
       <r>     0.4276    25.5751    33.6370 </r>
       <r>     0.5537    18.5510    35.9768 </r>
       <r>     0.6798     0.1842    36.0000 </r>
       <r>     0.8060     0.0000    36.0000 </r>
       <r>     0.9321     0.0000    36.0000 </r>
       <r>     1.0582     0.0000    36.0000 </r>
       <r>     1.1843     0.0000    36.0000 </r>
       <r>     1.3104     0.0000    36.0000 </r>
       <r>     1.4366     0.0000    36.0000 </r>
       <r>     1.5627     0.0000    36.0000 </r>
       <r>     1.6888     0.0000    36.0000 </r>
       <r>     1.8149     0.0000    36.0000 </r>
       <r>     1.9411     0.0000    36.0000 </r>
       <r>     2.0672     0.0000    36.0000 </r>
       <r>     2.1933     0.0000    36.0000 </r>
      </set>
     </set>
    </array>
   </total>
  </dos>
 </calculation>
 <structure name="finalpos" >
  <crystal>
   <varray name="basis" >
    <v>      14.50000000       0.00000000       0.00000000 </v>
    <v>       0.00000000      14.50000000       0.00000000 </v>
    <v>       0.00000000       0.00000000      14.50000000 </v>
   </varray>
   <i name="volume">   3048.62500000 </i>
   <varray name="rec_basis" >
    <v>       0.06896552       0.00000000       0.00000000 </v>
    <v>       0.00000000       0.06896552       0.00000000 </v>
    <v>       0.00000000       0.00000000       0.06896552 </v>
   </varray>
  </crystal>
  <varray name="positions" >
   <v>       0.00000000       0.00000000       0.00000000 </v>
   <v>       0.08324138       0.00000000       0.00000000 </v>
   <v>       0.00000000       0.00000000       0.12413793 </v>
   <v>       0.08324138       0.00000000       0.12413793 </v>
  </varray>
 </structure>
</modeling>
