  254  254    1    1
  0.2268316E+02  0.1514622E-08  0.1514622E-08  0.2900000E-08  0.5000000E-15
   1.0000000000000000E-004
  CAR 
 NiAl                                    
   2532      4   1519
 
  0.1262379E-14  0.1262379E-14  0.1262379E-14  0.2500000E+00
    1      -32.362732   1.000000
    2      -16.326007   1.000000
    3      -12.172736   1.000000
    4      -11.479445   1.000000
    5      -10.316084   1.000000
    6       -9.047422   1.000000
    7       -8.514060   1.000000
    8       -8.141524   1.000000
    9       -8.141509   1.000000
   10       -8.141432   1.000000
   11       -8.141325   1.000000
   12       -8.141189   1.000000
   13       -8.136497   1.000000
   14       -7.683994   1.000000
   15       -7.635975   1.000000
   16       -7.635584   1.000000
   17       -7.635499   1.000000
   18       -7.635410   1.000000
   19       -7.634652   1.000000
   20       -7.615136   1.000000
   21       -6.848765   1.000000
   22       -6.847491   1.000000
   23       -6.847384   1.000000
   24       -6.847270   1.000000
   25       -6.846588   1.000000
   26       -6.817289   1.000000
   27       -6.647035   1.000000
   28       -6.501743   1.000000
   29       -6.501188   1.000000
   30       -6.501056   1.000000
   31       -6.500950   1.000000
   32       -6.500930   1.000000
   33       -6.499832   1.000000
   34       -6.081109   1.000000
   35       -6.079169   1.000000
   36       -6.078546   1.000000
   37       -6.078396   1.000000
   38       -6.078008   1.000000
   39       -6.075522   1.000000
   40       -5.878153   1.000000
   41       -5.876025   1.000000
   42       -5.875832   1.000000
   43       -5.875644   1.000000
   44       -5.875263   1.000000
   45       -5.870989   1.000000
   46       -5.870907   1.000000
   47       -5.870539   1.000000
   48       -5.870425   1.000000
   49       -5.870366   1.000000
   50       -5.870324   1.000000
   51       -5.833747   1.000000
   52       -5.624684   1.000000
   53       -5.538853   1.000000
   54       -5.536685   1.000000
   55       -5.536271   1.000000
   56       -5.535626   1.000000
   57       -5.535200   1.000000
   58       -5.534756   1.000000
   59       -5.450642   1.000000
   60       -5.446976   1.000000
   61       -5.445867   1.000000
   62       -5.445634   1.000000
   63       -5.444703   1.000000
   64       -5.437885   1.000000
   65       -5.084766   1.000000
   66       -5.080236   1.000000
   67       -5.079705   1.000000
   68       -5.079548   1.000000
   69       -5.077993   1.000000
   70       -5.077732   1.000000
   71       -4.977719   1.000000
   72       -4.930093   1.000000
   73       -4.927000   1.000000
   74       -4.925424   1.000000
   75       -4.925028   1.000000
   76       -4.924944   1.000000
   77       -4.887246   1.000000
   78       -4.788792   1.000000
   79       -4.734940   1.000000
   80       -4.732897   1.000000
   81       -4.732688   1.000000
   82       -4.724200   1.000000
   83       -4.716570   1.000000
   84       -4.714985   1.000000
   85       -4.714959   1.000000
   86       -4.713723   1.000000
   87       -4.703192   1.000000
   88       -4.627024   1.000000
   89       -4.613138   1.000000
   90       -4.612256   1.000000
   91       -4.611440   1.000000
   92       -4.610554   1.000000
   93       -4.608021   1.000000
   94       -4.577176   1.000000
   95       -4.577074   1.000000
   96       -4.576916   1.000000
   97       -4.505908   1.000000
   98       -4.502617   1.000000
   99       -4.501604   1.000000
  100       -4.500741   1.000000
  101       -4.500546   1.000000
  102       -4.500362   1.000000
  103       -4.500310   1.000000
  104       -4.500262   1.000000
  105       -4.500229   1.000000
  106       -4.500162   1.000000
  107       -4.500023   1.000000
  108       -4.499931   1.000000
  109       -4.461329   1.000000
  110       -4.456180   1.000000
  111       -4.456097   1.000000
  112       -4.391359   1.000000
  113       -4.370458   1.000000
  114       -4.369470   1.000000
  115       -4.358152   1.000000
  116       -4.351437   1.000000
  117       -4.347242   1.000000
  118       -4.346857   1.000000
  119       -4.346719   1.000000
  120       -4.334047   1.000000
  121       -4.316271   1.000000
  122       -4.309340   1.000000
  123       -4.304618   1.000000
  124       -4.303111   1.000000
  125       -4.302267   1.000000
  126       -4.302040   1.000000
  127       -4.302019   1.000000
  128       -4.301798   1.000000
  129       -4.301719   1.000000
  130       -4.301670   1.000000
  131       -4.301544   1.000000
  132       -4.301439   1.000000
  133       -4.274013   1.000000
  134       -4.273071   1.000000
  135       -4.270790   1.000000
  136       -4.270532   1.000000
  137       -4.268085   1.000000
  138       -4.267581   1.000000
  139       -4.267525   1.000000
  140       -4.267428   1.000000
  141       -4.267415   1.000000
  142       -4.267128   1.000000
  143       -4.266838   1.000000
  144       -4.266687   1.000000
  145       -4.260180   1.000000
  146       -4.225429   1.000000
  147       -4.222860   1.000000
  148       -4.222708   1.000000
  149       -4.222584   1.000000
  150       -4.220375   1.000000
  151       -4.219217   1.000000
  152       -4.189844   1.000000
  153       -4.189441   1.000000
  154       -4.188160   1.000000
  155       -4.187694   1.000000
  156       -4.181516   1.000000
  157       -4.170656   1.000000
  158       -4.168994   1.000000
  159       -4.165330   1.000000
  160       -4.150627   1.000000
  161       -4.142688   1.000000
  162       -4.136998   1.000000
  163       -4.136173   1.000000
  164       -4.132179   1.000000
  165       -4.130419   1.000000
  166       -4.130144   1.000000
  167       -4.129355   1.000000
  168       -4.129267   1.000000
  169       -4.129108   1.000000
  170       -4.128901   1.000000
  171       -4.128744   1.000000
  172       -4.102661   1.000000
  173       -4.062457   1.000000
  174       -4.061162   1.000000
  175       -4.060064   1.000000
  176       -4.059486   1.000000
  177       -4.053118   1.000000
  178       -4.047739   1.000000
  179       -4.020521   1.000000
  180       -4.020302   1.000000
  181       -4.019526   1.000000
  182       -3.962208   1.000000
  183       -3.956299   1.000000
  184       -3.943596   1.000000
  185       -3.940225   1.000000
  186       -3.935819   1.000000
  187       -3.934246   1.000000
  188       -3.933157   1.000000
  189       -3.931922   1.000000
  190       -3.931503   1.000000
  191       -3.929756   1.000000
  192       -3.929482   1.000000
  193       -3.929312   1.000000
  194       -3.929294   1.000000
  195       -3.928588   1.000000
  196       -3.891648   1.000000
  197       -3.868250   1.000000
  198       -3.867896   1.000000
  199       -3.853447   1.000000
  200       -3.825543   1.000000
  201       -3.819068   1.000000
  202       -3.811686   1.000000
  203       -3.811495   1.000000
  204       -3.810787   1.000000
  205       -3.810506   1.000000
  206       -3.810352   1.000000
  207       -3.803335   1.000000
  208       -3.762362   1.000000
  209       -3.744394   1.000000
  210       -3.742653   1.000000
  211       -3.742341   1.000000
  212       -3.740518   1.000000
  213       -3.740327   1.000000
  214       -3.740223   1.000000
  215       -3.740073   1.000000
  216       -3.740053   1.000000
  217       -3.739910   1.000000
  218       -3.739779   1.000000
  219       -3.739687   1.000000
  220       -3.737498   1.000000
  221       -3.736338   1.000000
  222       -3.735622   1.000000
  223       -3.735567   1.000000
  224       -3.734072   1.000000
  225       -3.733398   1.000000
  226       -3.715764   1.000000
  227       -3.708387   1.000000
  228       -3.687738   1.000000
  229       -3.687281   1.000000
  230       -3.683655   1.000000
  231       -3.682057   1.000000
  232       -3.681954   1.000000
  233       -3.681280   1.000000
  234       -3.681168   1.000000
  235       -3.680908   1.000000
  236       -3.680748   1.000000
  237       -3.679888   1.000000
  238       -3.663539   1.000000
  239       -3.663451   1.000000
  240       -3.661306   1.000000
  241       -3.658504   1.000000
  242       -3.657898   1.000000
  243       -3.657255   1.000000
  244       -3.646442   1.000000
  245       -3.622628   1.000000
  246       -3.619169   1.000000
  247       -3.618869   1.000000
  248       -3.618456   1.000000
  249       -3.617809   1.000000
  250       -3.617525   1.000000
  251       -3.617081   1.000000
  252       -3.614739   1.000000
  253       -3.614323   1.000000
  254       -3.608244   1.000000
  255       -3.608102   1.000000
  256       -3.606310   1.000000
  257       -3.606058   1.000000
  258       -3.563026   1.000000
  259       -3.561805   1.000000
  260       -3.553623   1.000000
  261       -3.553028   1.000000
  262       -3.552282   1.000000
  263       -3.552139   1.000000
  264       -3.552039   1.000000
  265       -3.551912   1.000000
  266       -3.551747   1.000000
  267       -3.551474   1.000000
  268       -3.550933   1.000000
  269       -3.547534   1.000000
  270       -3.546125   1.000000
  271       -3.533314   1.000000
  272       -3.525527   1.000000
  273       -3.520888   1.000000
  274       -3.518980   1.000000
  275       -3.516504   1.000000
  276       -3.516267   1.000000
  277       -3.504081   1.000000
  278       -3.501724   1.000000
  279       -3.497946   1.000000
  280       -3.497310   1.000000
  281       -3.495651   1.000000
  282       -3.484917   1.000000
  283       -3.484737   1.000000
  284       -3.476136   1.000000
  285       -3.475623   1.000000
  286       -3.475143   1.000000
  287       -3.475011   1.000000
  288       -3.473581   1.000000
  289       -3.472769   1.000000
  290       -3.472581   1.000000
  291       -3.470944   1.000000
  292       -3.470421   1.000000
  293       -3.469840   1.000000
  294       -3.469565   1.000000
  295       -3.466453   1.000000
  296       -3.448790   1.000000
  297       -3.414241   1.000000
  298       -3.408039   1.000000
  299       -3.401534   1.000000
  300       -3.401350   1.000000
  301       -3.397709   1.000000
  302       -3.397123   1.000000
  303       -3.394830   1.000000
  304       -3.394660   1.000000
  305       -3.394092   1.000000
  306       -3.393790   1.000000
  307       -3.393641   1.000000
  308       -3.393558   1.000000
  309       -3.391840   1.000000
  310       -3.391191   1.000000
  311       -3.382994   1.000000
  312       -3.361941   1.000000
  313       -3.324450   1.000000
  314       -3.323724   1.000000
  315       -3.322137   1.000000
  316       -3.321761   1.000000
  317       -3.321639   1.000000
  318       -3.319183   1.000000
  319       -3.307218   1.000000
  320       -3.306277   1.000000
  321       -3.290404   1.000000
  322       -3.288255   1.000000
  323       -3.286640   1.000000
  324       -3.286564   1.000000
  325       -3.286046   1.000000
  326       -3.285827   1.000000
  327       -3.285631   1.000000
  328       -3.285247   1.000000
  329       -3.281347   1.000000
  330       -3.279221   1.000000
  331       -3.276724   1.000000
  332       -3.276240   1.000000
  333       -3.275956   1.000000
  334       -3.275262   1.000000
  335       -3.274877   1.000000
  336       -3.274026   1.000000
  337       -3.271132   1.000000
  338       -3.270926   1.000000
  339       -3.270327   1.000000
  340       -3.267437   1.000000
  341       -3.263299   1.000000
  342       -3.208668   1.000000
  343       -3.184667   1.000000
  344       -3.171123   1.000000
  345       -3.169916   1.000000
  346       -3.149228   1.000000
  347       -3.146791   1.000000
  348       -3.144122   1.000000
  349       -3.141420   1.000000
  350       -3.139813   1.000000
  351       -3.139326   1.000000
  352       -3.130432   1.000000
  353       -3.130368   1.000000
  354       -3.121319   1.000000
  355       -3.119393   1.000000
  356       -3.110684   1.000000
  357       -3.109611   1.000000
  358       -3.108204   1.000000
  359       -3.106552   1.000000
  360       -3.106322   1.000000
  361       -3.105374   1.000000
  362       -3.105085   1.000000
  363       -3.102431   1.000000
  364       -3.098326   1.000000
  365       -3.097570   1.000000
  366       -3.087250   1.000000
  367       -3.055264   1.000000
  368       -3.043685   1.000000
  369       -3.039071   1.000000
  370       -3.037963   1.000000
  371       -3.036374   1.000000
  372       -3.030508   1.000000
  373       -3.023755   1.000000
  374       -3.012580   1.000000
  375       -3.012367   1.000000
  376       -3.010056   1.000000
  377       -3.009636   1.000000
  378       -3.009630   1.000000
  379       -3.009029   1.000000
  380       -3.008834   1.000000
  381       -3.008719   1.000000
  382       -3.008474   1.000000
  383       -3.008196   1.000000
  384       -3.007927   1.000000
  385       -2.991924   1.000000
  386       -2.965304   1.000000
  387       -2.960972   1.000000
  388       -2.959277   1.000000
  389       -2.959082   1.000000
  390       -2.957911   1.000000
  391       -2.957888   1.000000
  392       -2.957668   1.000000
  393       -2.957415   1.000000
  394       -2.956995   1.000000
  395       -2.956877   1.000000
  396       -2.937634   1.000000
  397       -2.918179   1.000000
  398       -2.908697   1.000000
  399       -2.903854   1.000000
  400       -2.902213   1.000000
  401       -2.902118   1.000000
  402       -2.901599   1.000000
  403       -2.900618   1.000000
  404       -2.848072   1.000000
  405       -2.845638   1.000000
  406       -2.844630   1.000000
  407       -2.843904   1.000000
  408       -2.842677   1.000000
  409       -2.835076   1.000000
  410       -2.834569   1.000000
  411       -2.834102   1.000000
  412       -2.833359   1.000000
  413       -2.832557   1.000000
  414       -2.832141   1.000000
  415       -2.830688   1.000000
  416       -2.809052   1.000000
  417       -2.808759   1.000000
  418       -2.807611   1.000000
  419       -2.807269   1.000000
  420       -2.806610   1.000000
  421       -2.805754   1.000000
  422       -2.804321   1.000000
  423       -2.803491   1.000000
  424       -2.802959   1.000000
  425       -2.802387   1.000000
  426       -2.799986   1.000000
  427       -2.793971   1.000000
  428       -2.779979   1.000000
  429       -2.779316   1.000000
  430       -2.778151   1.000000
  431       -2.777026   1.000000
  432       -2.776905   1.000000
  433       -2.776266   1.000000
  434       -2.774115   1.000000
  435       -2.773999   1.000000
  436       -2.773513   1.000000
  437       -2.772881   1.000000
  438       -2.772729   1.000000
  439       -2.772624   1.000000
  440       -2.772602   1.000000
  441       -2.772147   1.000000
  442       -2.772059   1.000000
  443       -2.769767   1.000000
  444       -2.758778   1.000000
  445       -2.745398   1.000000
  446       -2.715676   1.000000
  447       -2.710527   1.000000
  448       -2.704381   1.000000
  449       -2.703653   1.000000
  450       -2.702934   1.000000
  451       -2.700944   1.000000
  452       -2.700212   1.000000
  453       -2.700102   1.000000
  454       -2.699735   1.000000
  455       -2.699625   1.000000
  456       -2.699474   1.000000
  457       -2.699262   1.000000
  458       -2.698804   1.000000
  459       -2.698623   1.000000
  460       -2.698402   1.000000
  461       -2.697755   1.000000
  462       -2.697092   1.000000
  463       -2.697067   1.000000
  464       -2.695187   1.000000
  465       -2.692068   1.000000
  466       -2.690227   1.000000
  467       -2.662055   1.000000
  468       -2.660025   1.000000
  469       -2.657307   1.000000
  470       -2.656477   1.000000
  471       -2.623575   1.000000
  472       -2.621633   1.000000
  473       -2.619287   1.000000
  474       -2.611445   1.000000
  475       -2.609959   1.000000
  476       -2.608207   1.000000
  477       -2.607284   1.000000
  478       -2.606724   1.000000
  479       -2.605860   1.000000
  480       -2.605181   1.000000
  481       -2.604897   1.000000
  482       -2.604741   1.000000
  483       -2.603559   1.000000
  484       -2.603241   1.000000
  485       -2.603215   1.000000
  486       -2.602927   1.000000
  487       -2.602758   1.000000
  488       -2.602283   1.000000
  489       -2.602258   1.000000
  490       -2.600868   1.000000
  491       -2.598759   1.000000
  492       -2.598617   1.000000
  493       -2.597973   1.000000
  494       -2.597433   1.000000
  495       -2.597039   1.000000
  496       -2.597006   1.000000
  497       -2.596881   1.000000
  498       -2.596787   1.000000
  499       -2.596447   1.000000
  500       -2.596351   1.000000
  501       -2.587690   1.000000
  502       -2.573207   1.000000
  503       -2.550745   1.000000
  504       -2.547407   1.000000
  505       -2.547180   1.000000
  506       -2.547015   1.000000
  507       -2.545303   1.000000
  508       -2.540635   1.000000
  509       -2.537934   1.000000
  510       -2.537344   1.000000
  511       -2.537221   1.000000
  512       -2.536322   1.000000
  513       -2.535233   1.000000
  514       -2.534803   1.000000
  515       -2.522193   1.000000
  516       -2.517177   1.000000
  517       -2.510746   1.000000
  518       -2.510622   1.000000
  519       -2.503187   1.000000
  520       -2.501371   1.000000
  521       -2.491737   1.000000
  522       -2.486184   1.000000
  523       -2.484171   1.000000
  524       -2.481552   1.000000
  525       -2.467588   1.000000
  526       -2.461951   1.000000
  527       -2.442541   1.000000
  528       -2.440688   1.000000
  529       -2.440133   1.000000
  530       -2.439860   1.000000
  531       -2.439068   1.000000
  532       -2.438330   1.000000
  533       -2.437805   1.000000
  534       -2.437763   1.000000
  535       -2.437455   1.000000
  536       -2.437226   1.000000
  537       -2.435977   1.000000
  538       -2.435613   1.000000
  539       -2.432114   1.000000
  540       -2.425868   1.000000
  541       -2.422693   1.000000
  542       -2.422011   1.000000
  543       -2.417454   1.000000
  544       -2.400597   1.000000
  545       -2.395060   1.000000
  546       -2.391334   1.000000
  547       -2.386161   1.000000
  548       -2.383177   1.000000
  549       -2.381792   1.000000
  550       -2.380734   1.000000
  551       -2.378579   1.000000
  552       -2.377158   1.000000
  553       -2.374093   1.000000
  554       -2.370780   1.000000
  555       -2.370051   1.000000
  556       -2.367925   1.000000
  557       -2.367076   1.000000
  558       -2.366308   1.000000
  559       -2.366253   1.000000
  560       -2.365783   1.000000
  561       -2.365754   1.000000
  562       -2.365011   1.000000
  563       -2.364821   1.000000
  564       -2.364292   1.000000
  565       -2.363928   1.000000
  566       -2.362510   1.000000
  567       -2.359347   1.000000
  568       -2.357816   1.000000
  569       -2.356003   1.000000
  570       -2.355942   1.000000
  571       -2.355503   1.000000
  572       -2.350472   1.000000
  573       -2.341763   1.000000
  574       -2.322183   1.000000
  575       -2.315119   1.000000
  576       -2.311909   1.000000
  577       -2.311557   1.000000
  578       -2.308888   1.000000
  579       -2.304949   1.000000
  580       -2.303825   1.000000
  581       -2.303176   1.000000
  582       -2.301749   1.000000
  583       -2.300924   1.000000
  584       -2.299951   1.000000
  585       -2.293008   1.000000
  586       -2.292098   1.000000
  587       -2.292003   1.000000
  588       -2.290009   1.000000
  589       -2.289203   1.000000
  590       -2.279377   1.000000
  591       -2.271096   1.000000
  592       -2.265467   1.000000
  593       -2.265307   1.000000
  594       -2.262512   1.000000
  595       -2.262165   1.000000
  596       -2.260649   1.000000
  597       -2.259117   1.000000
  598       -2.250348   1.000000
  599       -2.249692   1.000000
  600       -2.249546   1.000000
  601       -2.248678   1.000000
  602       -2.248553   1.000000
  603       -2.248285   1.000000
  604       -2.244446   1.000000
  605       -2.243933   1.000000
  606       -2.238984   1.000000
  607       -2.230132   1.000000
  608       -2.229977   1.000000
  609       -2.229808   1.000000
  610       -2.229644   1.000000
  611       -2.229617   1.000000
  612       -2.229424   1.000000
  613       -2.218793   1.000000
  614       -2.214479   1.000000
  615       -2.214281   1.000000
  616       -2.204299   1.000000
  617       -2.200098   1.000000
  618       -2.193565   1.000000
  619       -2.190423   1.000000
  620       -2.189270   1.000000
  621       -2.186636   1.000000
  622       -2.186046   1.000000
  623       -2.185261   1.000000
  624       -2.182149   1.000000
  625       -2.169846   1.000000
  626       -2.169264   1.000000
  627       -2.155632   1.000000
  628       -2.155292   1.000000
  629       -2.154911   1.000000
  630       -2.154806   1.000000
  631       -2.154711   1.000000
  632       -2.154545   1.000000
  633       -2.152703   1.000000
  634       -2.152320   1.000000
  635       -2.147713   1.000000
  636       -2.135315   1.000000
  637       -2.133607   1.000000
  638       -2.132570   1.000000
  639       -2.131543   1.000000
  640       -2.131049   1.000000
  641       -2.130288   1.000000
  642       -2.127162   1.000000
  643       -2.123526   1.000000
  644       -2.122353   1.000000
  645       -2.120085   1.000000
  646       -2.118085   1.000000
  647       -2.113914   1.000000
  648       -2.113141   1.000000
  649       -2.109812   1.000000
  650       -2.108583   1.000000
  651       -2.107544   1.000000
  652       -2.107458   1.000000
  653       -2.106373   1.000000
  654       -2.106054   1.000000
  655       -2.105559   1.000000
  656       -2.104367   1.000000
  657       -2.104359   1.000000
  658       -2.103620   1.000000
  659       -2.103339   1.000000
  660       -2.103068   1.000000
  661       -2.100963   1.000000
  662       -2.100488   1.000000
  663       -2.099390   1.000000
  664       -2.095847   1.000000
  665       -2.095210   1.000000
  666       -2.093719   1.000000
  667       -2.093621   1.000000
  668       -2.092285   1.000000
  669       -2.090659   1.000000
  670       -2.089392   1.000000
  671       -2.089137   1.000000
  672       -2.085370   1.000000
  673       -2.081493   1.000000
  674       -2.064747   1.000000
  675       -2.053619   1.000000
  676       -2.047852   1.000000
  677       -2.044612   1.000000
  678       -2.042295   1.000000
  679       -2.041200   1.000000
  680       -2.041152   1.000000
  681       -2.031648   1.000000
  682       -2.023416   1.000000
  683       -2.022283   1.000000
  684       -2.021507   1.000000
  685       -2.020149   1.000000
  686       -2.019873   1.000000
  687       -2.019772   1.000000
  688       -2.009530   1.000000
  689       -2.004688   1.000000
  690       -1.999000   1.000000
  691       -1.997756   1.000000
  692       -1.995753   1.000000
  693       -1.995560   1.000000
  694       -1.993840   1.000000
  695       -1.993710   1.000000
  696       -1.993329   1.000000
  697       -1.992382   1.000000
  698       -1.991449   1.000000
  699       -1.990941   1.000000
  700       -1.990849   1.000000
  701       -1.990570   1.000000
  702       -1.989009   1.000000
  703       -1.988387   1.000000
  704       -1.980394   1.000000
  705       -1.980170   1.000000
  706       -1.979329   1.000000
  707       -1.977280   1.000000
  708       -1.977182   1.000000
  709       -1.976195   1.000000
  710       -1.976063   1.000000
  711       -1.975668   1.000000
  712       -1.975560   1.000000
  713       -1.975496   1.000000
  714       -1.975229   1.000000
  715       -1.975147   1.000000
  716       -1.973898   1.000000
  717       -1.973690   1.000000
  718       -1.959272   1.000000
  719       -1.950475   1.000000
  720       -1.950254   1.000000
  721       -1.949853   1.000000
  722       -1.949725   1.000000
  723       -1.949617   1.000000
  724       -1.949229   1.000000
  725       -1.948428   1.000000
  726       -1.930671   1.000000
  727       -1.929649   1.000000
  728       -1.929527   1.000000
  729       -1.923230   1.000000
  730       -1.922291   1.000000
  731       -1.920762   1.000000
  732       -1.908955   1.000000
  733       -1.906664   1.000000
  734       -1.906433   1.000000
  735       -1.905889   1.000000
  736       -1.905133   1.000000
  737       -1.905072   1.000000
  738       -1.904248   1.000000
  739       -1.904221   1.000000
  740       -1.904002   1.000000
  741       -1.891735   1.000000
  742       -1.879187   1.000000
  743       -1.868642   1.000000
  744       -1.863416   1.000000
  745       -1.861696   1.000000
  746       -1.860695   1.000000
  747       -1.860500   1.000000
  748       -1.859880   1.000000
  749       -1.859757   1.000000
  750       -1.857126   1.000000
  751       -1.857013   1.000000
  752       -1.855825   1.000000
  753       -1.851129   1.000000
  754       -1.849609   1.000000
  755       -1.849014   1.000000
  756       -1.822362   1.000000
  757       -1.815720   1.000000
  758       -1.812390   1.000000
  759       -1.810949   1.000000
  760       -1.810320   1.000000
  761       -1.806878   1.000000
  762       -1.806540   1.000000
  763       -1.805922   1.000000
  764       -1.805267   1.000000
  765       -1.805030   1.000000
  766       -1.804447   1.000000
  767       -1.803865   1.000000
  768       -1.802853   1.000000
  769       -1.802373   1.000000
  770       -1.802002   1.000000
  771       -1.798553   1.000000
  772       -1.797589   1.000000
  773       -1.797074   1.000000
  774       -1.796316   1.000000
  775       -1.796265   1.000000
  776       -1.795607   1.000000
  777       -1.794375   1.000000
  778       -1.783639   1.000000
  779       -1.774949   1.000000
  780       -1.772619   1.000000
  781       -1.768029   1.000000
  782       -1.764973   1.000000
  783       -1.763527   1.000000
  784       -1.760599   1.000000
  785       -1.759169   1.000000
  786       -1.758557   1.000000
  787       -1.758399   1.000000
  788       -1.758169   1.000000
  789       -1.751088   1.000000
  790       -1.748196   1.000000
  791       -1.745954   1.000000
  792       -1.744521   1.000000
  793       -1.742936   1.000000
  794       -1.740201   1.000000
  795       -1.738406   1.000000
  796       -1.734649   1.000000
  797       -1.734033   1.000000
  798       -1.730761   1.000000
  799       -1.729700   1.000000
  800       -1.728063   1.000000
  801       -1.726160   1.000000
  802       -1.718261   1.000000
  803       -1.717803   1.000000
  804       -1.715948   1.000000
  805       -1.714006   1.000000
  806       -1.712935   1.000000
  807       -1.712385   1.000000
  808       -1.710761   1.000000
  809       -1.710352   1.000000
  810       -1.707653   1.000000
  811       -1.706932   1.000000
  812       -1.706416   1.000000
  813       -1.706041   1.000000
  814       -1.704706   1.000000
  815       -1.703855   1.000000
  816       -1.698925   1.000000
  817       -1.683271   1.000000
  818       -1.682862   1.000000
  819       -1.679418   1.000000
  820       -1.675940   1.000000
  821       -1.674624   1.000000
  822       -1.669800   1.000000
  823       -1.669329   1.000000
  824       -1.668090   1.000000
  825       -1.666767   1.000000
  826       -1.666127   1.000000
  827       -1.666063   1.000000
  828       -1.665642   1.000000
  829       -1.650746   1.000000
  830       -1.645917   1.000000
  831       -1.640196   1.000000
  832       -1.639236   1.000000
  833       -1.636027   1.000000
  834       -1.634856   1.000000
  835       -1.632639   1.000000
  836       -1.632560   1.000000
  837       -1.631684   1.000000
  838       -1.631450   1.000000
  839       -1.630515   1.000000
  840       -1.630247   1.000000
  841       -1.629009   1.000000
  842       -1.628086   1.000000
  843       -1.627931   1.000000
  844       -1.623383   1.000000
  845       -1.621894   1.000000
  846       -1.620970   1.000000
  847       -1.619241   1.000000
  848       -1.617540   1.000000
  849       -1.616597   1.000000
  850       -1.615480   1.000000
  851       -1.615360   1.000000
  852       -1.614018   1.000000
  853       -1.613317   1.000000
  854       -1.611648   1.000000
  855       -1.609795   1.000000
  856       -1.608852   1.000000
  857       -1.608632   1.000000
  858       -1.606035   1.000000
  859       -1.605057   1.000000
  860       -1.604928   1.000000
  861       -1.590584   1.000000
  862       -1.585341   1.000000
  863       -1.584918   1.000000
  864       -1.573697   1.000000
  865       -1.555079   1.000000
  866       -1.553389   1.000000
  867       -1.552106   1.000000
  868       -1.549747   1.000000
  869       -1.547666   1.000000
  870       -1.541663   1.000000
  871       -1.541375   1.000000
  872       -1.529198   1.000000
  873       -1.527259   1.000000
  874       -1.523802   1.000000
  875       -1.521097   1.000000
  876       -1.520536   1.000000
  877       -1.518929   1.000000
  878       -1.518885   1.000000
  879       -1.518668   1.000000
  880       -1.517713   1.000000
  881       -1.516136   1.000000
  882       -1.515970   1.000000
  883       -1.510872   1.000000
  884       -1.509188   1.000000
  885       -1.507445   1.000000
  886       -1.499087   1.000000
  887       -1.498591   1.000000
  888       -1.497523   1.000000
  889       -1.460162   1.000000
  890       -1.452973   1.000000
  891       -1.445873   1.000000
  892       -1.445724   1.000000
  893       -1.444802   1.000000
  894       -1.444404   1.000000
  895       -1.420864   1.000000
  896       -1.418613   1.000000
  897       -1.405097   1.000000
  898       -1.400704   1.000000
  899       -1.398779   1.000000
  900       -1.396297   1.000000
  901       -1.393737   1.000000