       N       E                     dE             d eps       ncg     rms          rms(c)
DAV:   1     0.223819465782E+05    0.22382E+05   -0.98582E+05 12200   0.134E+03
DAV:   2     0.108302244816E+03   -0.22274E+05   -0.21280E+05 12152   0.469E+02
DAV:   3    -0.133469998273E+04   -0.14430E+04   -0.12159E+04 13872   0.131E+02
DAV:   4    -0.155516676130E+04   -0.22047E+03   -0.18791E+03 21624   0.488E+01
DAV:   5    -0.156684995748E+04   -0.11683E+02   -0.10709E+02 20432   0.117E+01    0.150E+02
DAV:   6    -0.197524307744E+04   -0.40839E+03   -0.27049E+03 16272   0.175E+02    0.304E+02
DAV:   7    -0.171390577082E+04    0.26134E+03   -0.10119E+03 13136   0.138E+02    0.234E+02
DAV:   8    -0.179809273175E+04   -0.84187E+02   -0.71612E+02 15976   0.127E+02    0.271E+02
DAV:   9    -0.226209482012E+04   -0.46400E+03   -0.23101E+02 13304   0.146E+02    0.327E+02
DAV:  10    -0.165844141373E+04    0.60365E+03   -0.31421E+02 17576   0.848E+01    0.192E+02
DAV:  11    -0.157508216560E+04    0.83359E+02   -0.33382E+02 14552   0.906E+01    0.201E+02
DAV:  12    -0.147476368557E+04    0.10032E+03   -0.20236E+02 13232   0.910E+01    0.156E+02
DAV:  13    -0.172496746534E+04   -0.25020E+03   -0.17818E+02 14752   0.105E+02    0.252E+02
DAV:  14    -0.148752128782E+04    0.23745E+03   -0.11781E+02 12512   0.530E+01    0.172E+02
DAV:  15    -0.140437457557E+04    0.83147E+02   -0.73002E+01 12560   0.541E+01    0.120E+02
DAV:  16    -0.145341106560E+04   -0.49036E+02   -0.78529E+01 13040   0.590E+01    0.167E+02
DAV:  17    -0.144235832341E+04    0.11053E+02   -0.64661E+01 13152   0.486E+01    0.153E+02
DAV:  18    -0.141130198467E+04    0.31056E+02   -0.46446E+01 12816   0.445E+01    0.143E+02
DAV:  19    -0.136466436886E+04    0.46638E+02   -0.26804E+01 12792   0.306E+01    0.104E+02
DAV:  20    -0.135144658478E+04    0.13218E+02   -0.17457E+01 13024   0.248E+01    0.886E+01
DAV:  21    -0.135782941214E+04   -0.63828E+01   -0.17702E+01 13120   0.262E+01    0.971E+01
DAV:  22    -0.134737357086E+04    0.10456E+02   -0.14713E+01 13032   0.237E+01    0.798E+01
DAV:  23    -0.133857877642E+04    0.87948E+01   -0.97154E+00 12976   0.191E+01    0.654E+01
DAV:  24    -0.133497019782E+04    0.36086E+01   -0.67943E+00 13008   0.142E+01    0.591E+01
DAV:  25    -0.133124865002E+04    0.37215E+01   -0.50705E+00 13104   0.123E+01    0.489E+01
DAV:  26    -0.132879181005E+04    0.24568E+01   -0.39537E+00 13008   0.112E+01    0.415E+01
DAV:  27    -0.132751871367E+04    0.12731E+01   -0.28258E+00 13120   0.960E+00    0.367E+01
DAV:  28    -0.132728938864E+04    0.22933E+00   -0.23441E+00 13072   0.869E+00    0.345E+01
DAV:  29    -0.132755841761E+04   -0.26903E+00   -0.23952E+00 13152   0.999E+00    0.371E+01
DAV:  30    -0.132711269864E+04    0.44572E+00   -0.23080E+00 13168   0.983E+00    0.376E+01
DAV:  31    -0.133069362126E+04   -0.35809E+01   -0.30648E+00 13280   0.115E+01    0.512E+01
DAV:  32    -0.133143786999E+04   -0.74425E+00   -0.30075E+00 13264   0.116E+01    0.517E+01
DAV:  33    -0.133096477001E+04    0.47310E+00   -0.25012E+00 13312   0.106E+01    0.499E+01
DAV:  34    -0.132998026755E+04    0.98450E+00   -0.22871E+00 13312   0.993E+00    0.480E+01
DAV:  35    -0.132897942630E+04    0.10008E+01   -0.20409E+00 13280   0.937E+00    0.447E+01
DAV:  36    -0.132657778883E+04    0.24016E+01   -0.16749E+00 13288   0.885E+00    0.334E+01
DAV:  37    -0.132544686469E+04    0.11309E+01   -0.12494E+00 13328   0.703E+00    0.250E+01
DAV:  38    -0.132515721674E+04    0.28965E+00   -0.99706E-01 13280   0.622E+00    0.240E+01
DAV:  39    -0.132462789576E+04    0.52932E+00   -0.95075E-01 13312   0.601E+00    0.184E+01
DAV:  40    -0.132439696421E+04    0.23093E+00   -0.65409E-01 13264   0.480E+00    0.183E+01
DAV:  41    -0.132428560828E+04    0.11136E+00   -0.51018E-01 13296   0.392E+00    0.167E+01
DAV:  42    -0.132417997811E+04    0.10563E+00   -0.43512E-01 13296   0.365E+00    0.151E+01
DAV:  43    -0.132389506610E+04    0.28491E+00   -0.31478E-01 13264   0.294E+00    0.102E+01
DAV:  44    -0.132382057304E+04    0.74493E-01   -0.18627E-01 13264   0.222E+00    0.872E+00
DAV:  45    -0.132379833140E+04    0.22242E-01   -0.13452E-01 13296   0.189E+00    0.792E+00
DAV:  46    -0.132377097582E+04    0.27356E-01   -0.10658E-01 13360   0.170E+00    0.737E+00
DAV:  47    -0.132375269024E+04    0.18286E-01   -0.67322E-02 13328   0.135E+00    0.673E+00
DAV:  48    -0.132375390607E+04   -0.12158E-02   -0.57710E-02 13424   0.125E+00    0.657E+00
DAV:  49    -0.132372380075E+04    0.30105E-01   -0.56248E-02 13376   0.120E+00    0.559E+00
DAV:  50    -0.132372314280E+04    0.65795E-03   -0.51520E-02 13376   0.120E+00    0.550E+00
DAV:  51    -0.132414191548E+04   -0.41877E+00   -0.32143E-01 20784   0.269E+00    0.144E+01
DAV:  52    -0.132398635459E+04    0.15556E+00   -0.24003E-01 15320   0.257E+00    0.118E+01
DAV:  53    -0.132382446678E+04    0.16189E+00   -0.13728E-01 14656   0.194E+00    0.884E+00
DAV:  54    -0.132376945938E+04    0.55007E-01   -0.77426E-02 13712   0.132E+00    0.756E+00
DAV:  55    -0.132373371602E+04    0.35743E-01   -0.71443E-02 13616   0.133E+00    0.641E+00
DAV:  56    -0.132371176509E+04    0.21951E-01   -0.80978E-02 14208   0.150E+00    0.546E+00
DAV:  57    -0.132372808649E+04   -0.16321E-01   -0.63971E-02 13712   0.141E+00    0.601E+00
DAV:  58    -0.132373028915E+04   -0.22027E-02   -0.69071E-02 13792   0.149E+00    0.583E+00
DAV:  59    -0.132369584758E+04    0.34442E-01   -0.54198E-02 13736   0.136E+00    0.460E+00
DAV:  60    -0.132368982134E+04    0.60262E-02   -0.39044E-02 13760   0.116E+00    0.422E+00
DAV:  61    -0.132370126120E+04   -0.11440E-01   -0.45091E-02 13792   0.134E+00    0.506E+00
DAV:  62    -0.132371404378E+04   -0.12783E-01   -0.47928E-02 13752   0.132E+00    0.597E+00
DAV:  63    -0.132368469790E+04    0.29346E-01   -0.30726E-02 13688   0.103E+00    0.403E+00
DAV:  64    -0.132366827555E+04    0.16422E-01   -0.22027E-02 13696   0.897E-01    0.319E+00
DAV:  65    -0.132365105510E+04    0.17220E-01   -0.11713E-02 13656   0.658E-01    0.160E+00
DAV:  66    -0.132374675229E+04   -0.95697E-01   -0.59125E-02 17736   0.139E+00    0.593E+00
DAV:  67    -0.132365747837E+04    0.89274E-01   -0.50090E-02 15376   0.134E+00    0.228E+00
DAV:  68    -0.132365070183E+04    0.67765E-02   -0.10375E-02 13936   0.552E-01    0.139E+00
DAV:  69    -0.132365001772E+04    0.68411E-03   -0.60247E-03 13520   0.404E-01    0.120E+00
DAV:  70    -0.132364875767E+04    0.12600E-02   -0.37262E-03 13448   0.321E-01    0.898E-01
DAV:  71    -0.132367898044E+04   -0.30223E-01   -0.16164E-02 16024   0.733E-01    0.349E+00
DAV:  72    -0.132365164928E+04    0.27331E-01   -0.14023E-02 14336   0.705E-01    0.123E+00
DAV:  73    -0.132364961114E+04    0.20381E-02   -0.22258E-03 13520   0.249E-01    0.898E-01
DAV:  74    -0.132364987550E+04   -0.26436E-03   -0.14857E-03 13984   0.166E-01    0.808E-01
DAV:  75    -0.132365033610E+04   -0.46061E-03   -0.11253E-03 13336   0.174E-01    0.608E-01
DAV:  76    -0.132365221602E+04   -0.18799E-02   -0.13796E-03 13496   0.216E-01    0.103E+00
DAV:  77    -0.132365043489E+04    0.17811E-02   -0.11218E-03 13408   0.186E-01    0.403E-01
DAV:  78    -0.132365054509E+04   -0.11020E-03   -0.33126E-04 13872   0.908E-02    0.338E-01
DAV:  79    -0.132365090658E+04   -0.36150E-03   -0.25573E-04 13584   0.846E-02    0.406E-01
DAV:  80    -0.132365140121E+04   -0.49463E-03   -0.24587E-04 13288   0.856E-02    0.324E-01
DAV:  81    -0.132365241247E+04   -0.10113E-02   -0.69579E-04 14288   0.166E-01    0.805E-01
DAV:  82    -0.132365172669E+04    0.68578E-03   -0.66057E-04 14064   0.155E-01    0.414E-01
DAV:  83    -0.132365198549E+04   -0.25881E-03   -0.20927E-04 13600   0.783E-02    0.205E-01
DAV:  84    -0.132365215154E+04   -0.16605E-03   -0.89512E-05 13848   0.490E-02    0.180E-01
DAV:  85    -0.132365268095E+04   -0.52940E-03   -0.12042E-04 15432   0.537E-02    0.198E-01
DAV:  86    -0.132365292606E+04   -0.24512E-03   -0.10736E-04 14320   0.574E-02    0.187E-01
DAV:  87    -0.132365315937E+04   -0.23331E-03   -0.67941E-05 13096   0.430E-02    0.122E-01
DAV:  88    -0.132365330043E+04   -0.14106E-03   -0.38893E-05 11352   0.299E-02    0.136E-01
DAV:  89    -0.132365347362E+04   -0.17319E-03   -0.39704E-05 11224   0.315E-02    0.128E-01
DAV:  90    -0.132365387011E+04   -0.39650E-03   -0.49371E-05 12712   0.333E-02    0.117E-01
DAV:  91    -0.132365396298E+04   -0.92867E-04   -0.53215E-05 12528   0.402E-02    0.180E-01
DAV:  92    -0.132365406947E+04   -0.10649E-03   -0.43294E-05 11272   0.349E-02    0.773E-02
DAV:  93    -0.132365426702E+04   -0.19756E-03   -0.22865E-05 10600   0.221E-02    0.953E-02
DAV:  94    -0.132365450568E+04   -0.23866E-03   -0.35952E-05 12800   0.256E-02    0.112E-01
DAV:  95    -0.132365469959E+04   -0.19390E-03   -0.35553E-05 11376   0.243E-02    0.614E-02
DAV:  96    -0.132365466529E+04    0.34300E-04   -0.27945E-05  9752   0.300E-02    0.140E-01
DAV:  97    -0.132365473207E+04   -0.66788E-04   -0.31458E-05  9712   0.310E-02    0.870E-02
DAV:  98    -0.132365478274E+04   -0.50664E-04   -0.17302E-05  8176   0.218E-02    0.842E-02
DAV:  99    -0.132365484683E+04   -0.64091E-04   -0.17672E-05  9200   0.178E-02    0.495E-02
DAV: 100    -0.132365488341E+04   -0.36581E-04   -0.11640E-05  9184   0.133E-02    0.559E-02
DAV: 101    -0.132365490889E+04   -0.25482E-04   -0.76511E-06  7568   0.135E-02    0.671E-02
DAV: 102    -0.132365492330E+04   -0.14405E-04   -0.80034E-06  8080   0.135E-02    0.566E-02
DAV: 103    -0.132365494009E+04   -0.16792E-04   -0.58216E-06  7856   0.936E-03    0.447E-02
DAV: 104    -0.132365495402E+04   -0.13926E-04   -0.37486E-06  7136   0.859E-03    0.313E-02
DAV: 105    -0.132365496664E+04   -0.12630E-04   -0.30837E-06  7200   0.784E-03    0.256E-02
DAV: 106    -0.132365496028E+04    0.63619E-05   -0.51246E-06  7912   0.840E-03    0.329E-02
DAV: 107    -0.132365497506E+04   -0.14775E-04   -0.29210E-06  6952   0.814E-03    0.228E-02
DAV: 108    -0.132365498801E+04   -0.12951E-04   -0.16147E-06  6760   0.650E-03    0.220E-02
DAV: 109    -0.132365499112E+04   -0.31111E-05   -0.14120E-06  6960   0.494E-03
   1 F= -.14210389E+04 E0= -.14203008E+04  d E =-.147620E+01
