 254 254   0   0
  0.2268316E+02  0.1514622E-08  0.1514622E-08  0.2900000E-08  0.5000000E-15
   1.0000000000000000E-004
  CAR 
 NiAl                                    
      6.46921925    -32.66948351  301     -0.50745806      1.00000000
    -32.669  0.0000E+00  0.0000E+00
    -32.539  0.0000E+00  0.0000E+00
    -32.409  0.0000E+00  0.0000E+00
    -32.278  0.0000E+00  0.0000E+00
    -32.148  0.0000E+00  0.0000E+00
    -32.017  0.0000E+00  0.0000E+00
    -31.887  0.0000E+00  0.0000E+00
    -31.756  0.0000E+00  0.0000E+00
    -31.626  0.0000E+00  0.0000E+00
    -31.495  0.0000E+00  0.0000E+00
    -31.365  0.0000E+00  0.0000E+00
    -31.234  0.0000E+00  0.0000E+00
    -31.104  0.1054E-07  0.1376E-08
    -30.973  0.1369E+00  0.1786E-01
    -30.843  0.1376E+02  0.1814E+01
    -30.713  0.1429E+01  0.2000E+01
    -30.582  0.4150E-05  0.2000E+01
    -30.452  0.0000E+00  0.2000E+01
    -30.321  0.0000E+00  0.2000E+01
    -30.191  0.0000E+00  0.2000E+01
    -30.060  0.0000E+00  0.2000E+01
    -29.930  0.0000E+00  0.2000E+01
    -29.799  0.0000E+00  0.2000E+01
    -29.669  0.0000E+00  0.2000E+01
    -29.538  0.0000E+00  0.2000E+01
    -29.408  0.0000E+00  0.2000E+01
    -29.277  0.0000E+00  0.2000E+01
    -29.147  0.0000E+00  0.2000E+01
    -29.017  0.0000E+00  0.2000E+01
    -28.886  0.0000E+00  0.2000E+01
    -28.756  0.0000E+00  0.2000E+01
    -28.625  0.0000E+00  0.2000E+01
    -28.495  0.0000E+00  0.2000E+01
    -28.364  0.0000E+00  0.2000E+01
    -28.234  0.0000E+00  0.2000E+01
    -28.103  0.0000E+00  0.2000E+01
    -27.973  0.0000E+00  0.2000E+01
    -27.842  0.0000E+00  0.2000E+01
    -27.712  0.0000E+00  0.2000E+01
    -27.581  0.0000E+00  0.2000E+01
    -27.451  0.0000E+00  0.2000E+01
    -27.321  0.0000E+00  0.2000E+01
    -27.190  0.0000E+00  0.2000E+01
    -27.060  0.0000E+00  0.2000E+01
    -26.929  0.0000E+00  0.2000E+01
    -26.799  0.0000E+00  0.2000E+01
    -26.668  0.0000E+00  0.2000E+01
    -26.538  0.0000E+00  0.2000E+01
    -26.407  0.0000E+00  0.2000E+01
    -26.277  0.0000E+00  0.2000E+01
    -26.146  0.0000E+00  0.2000E+01
    -26.016  0.0000E+00  0.2000E+01
    -25.885  0.0000E+00  0.2000E+01
    -25.755  0.0000E+00  0.2000E+01
    -25.625  0.0000E+00  0.2000E+01
    -25.494  0.0000E+00  0.2000E+01
    -25.364  0.0000E+00  0.2000E+01
    -25.233  0.0000E+00  0.2000E+01
    -25.103  0.0000E+00  0.2000E+01
    -24.972  0.0000E+00  0.2000E+01
    -24.842  0.0000E+00  0.2000E+01
    -24.711  0.0000E+00  0.2000E+01
    -24.581  0.0000E+00  0.2000E+01
    -24.450  0.0000E+00  0.2000E+01
    -24.320  0.0000E+00  0.2000E+01
    -24.189  0.0000E+00  0.2000E+01
    -24.059  0.0000E+00  0.2000E+01
    -23.929  0.0000E+00  0.2000E+01
    -23.798  0.0000E+00  0.2000E+01
    -23.668  0.0000E+00  0.2000E+01
    -23.537  0.0000E+00  0.2000E+01
    -23.407  0.0000E+00  0.2000E+01
    -23.276  0.0000E+00  0.2000E+01
    -23.146  0.0000E+00  0.2000E+01
    -23.015  0.0000E+00  0.2000E+01
    -22.885  0.0000E+00  0.2000E+01
    -22.754  0.0000E+00  0.2000E+01
    -22.624  0.0000E+00  0.2000E+01
    -22.493  0.0000E+00  0.2000E+01
    -22.363  0.0000E+00  0.2000E+01
    -22.232  0.0000E+00  0.2000E+01
    -22.102  0.0000E+00  0.2000E+01
    -21.972  0.0000E+00  0.2000E+01
    -21.841  0.0000E+00  0.2000E+01
    -21.711  0.0000E+00  0.2000E+01
    -21.580  0.0000E+00  0.2000E+01
    -21.450  0.0000E+00  0.2000E+01
    -21.319  0.0000E+00  0.2000E+01
    -21.189  0.0000E+00  0.2000E+01
    -21.058  0.0000E+00  0.2000E+01
    -20.928  0.0000E+00  0.2000E+01
    -20.797  0.0000E+00  0.2000E+01
    -20.667  0.0000E+00  0.2000E+01
    -20.536  0.0000E+00  0.2000E+01
    -20.406  0.0000E+00  0.2000E+01
    -20.276  0.0000E+00  0.2000E+01
    -20.145  0.0000E+00  0.2000E+01
    -20.015  0.0000E+00  0.2000E+01
    -19.884  0.0000E+00  0.2000E+01
    -19.754  0.0000E+00  0.2000E+01
    -19.623  0.0000E+00  0.2000E+01
    -19.493  0.0000E+00  0.2000E+01
    -19.362  0.0000E+00  0.2000E+01
    -19.232  0.0000E+00  0.2000E+01
    -19.101  0.0000E+00  0.2000E+01
    -18.971  0.0000E+00  0.2000E+01
    -18.840  0.0000E+00  0.2000E+01
    -18.710  0.0000E+00  0.2000E+01
    -18.580  0.0000E+00  0.2000E+01
    -18.449  0.0000E+00  0.2000E+01
    -18.319  0.0000E+00  0.2000E+01
    -18.188  0.0000E+00  0.2000E+01
    -18.058  0.0000E+00  0.2000E+01
    -17.927  0.0000E+00  0.2000E+01
    -17.797  0.0000E+00  0.2000E+01
    -17.666  0.0000E+00  0.2000E+01
    -17.536  0.0000E+00  0.2000E+01
    -17.405  0.0000E+00  0.2000E+01
    -17.275  0.0000E+00  0.2000E+01
    -17.144  0.0000E+00  0.2000E+01
    -17.014  0.0000E+00  0.2000E+01
    -16.884  0.0000E+00  0.2000E+01
    -16.753  0.0000E+00  0.2000E+01
    -16.623  0.0000E+00  0.2000E+01
    -16.492  0.0000E+00  0.2000E+01
    -16.362  0.0000E+00  0.2000E+01
    -16.231  0.0000E+00  0.2000E+01
    -16.101  0.0000E+00  0.2000E+01
    -15.970  0.0000E+00  0.2000E+01
    -15.840  0.0000E+00  0.2000E+01
    -15.709  0.0000E+00  0.2000E+01
    -15.579  0.0000E+00  0.2000E+01
    -15.448  0.0000E+00  0.2000E+01
    -15.318  0.0000E+00  0.2000E+01
    -15.188  0.0000E+00  0.2000E+01
    -15.057  0.0000E+00  0.2000E+01
    -14.927  0.1976E-09  0.2000E+01
    -14.796  0.2217E-01  0.2003E+01
    -14.666  0.1165E+02  0.3523E+01
    -14.535  0.3656E+01  0.4000E+01
    -14.405  0.8256E-04  0.4000E+01
    -14.274  0.0000E+00  0.4000E+01
    -14.144  0.0000E+00  0.4000E+01
    -14.013  0.0000E+00  0.4000E+01
    -13.883  0.0000E+00  0.4000E+01
    -13.752  0.0000E+00  0.4000E+01
    -13.622  0.0000E+00  0.4000E+01
    -13.492  0.0000E+00  0.4000E+01
    -13.361  0.0000E+00  0.4000E+01
    -13.231  0.0000E+00  0.4000E+01
    -13.100  0.0000E+00  0.4000E+01
    -12.970  0.0000E+00  0.4000E+01
    -12.839  0.0000E+00  0.4000E+01
    -12.709  0.0000E+00  0.4000E+01
    -12.578  0.0000E+00  0.4000E+01
    -12.448  0.0000E+00  0.4000E+01
    -12.317  0.0000E+00  0.4000E+01
    -12.187  0.0000E+00  0.4000E+01
    -12.056  0.0000E+00  0.4000E+01
    -11.926  0.0000E+00  0.4000E+01
    -11.796  0.0000E+00  0.4000E+01
    -11.665  0.0000E+00  0.4000E+01
    -11.535  0.0000E+00  0.4000E+01
    -11.404  0.0000E+00  0.4000E+01
    -11.274  0.0000E+00  0.4000E+01
    -11.143  0.0000E+00  0.4000E+01
    -11.013  0.0000E+00  0.4000E+01
    -10.882  0.0000E+00  0.4000E+01
    -10.752  0.0000E+00  0.4000E+01
    -10.621  0.0000E+00  0.4000E+01
    -10.491  0.0000E+00  0.4000E+01
    -10.360  0.0000E+00  0.4000E+01
    -10.230  0.0000E+00  0.4000E+01
    -10.099  0.0000E+00  0.4000E+01
     -9.969  0.2978E-14  0.4000E+01
     -9.839  0.6576E-04  0.4000E+01
     -9.708  0.3494E+01  0.4456E+01
     -9.578  0.2497E+02  0.7713E+01
     -9.447  0.2196E+01  0.8000E+01
     -9.317  0.1481E-04  0.8000E+01
     -9.186  0.2586E-02  0.8000E+01
     -9.056  0.9070E+01  0.9184E+01
     -8.925  0.1021E+02  0.1052E+02
     -8.795  0.1991E+02  0.1311E+02
     -8.664  0.2968E+01  0.1350E+02
     -8.534  0.2046E+01  0.1377E+02
     -8.403  0.7830E+01  0.1479E+02
     -8.273  0.3657E+02  0.1956E+02
     -8.143  0.1902E+02  0.2204E+02
     -8.012  0.7353E+01  0.2300E+02
     -7.882  0.7930E+01  0.2403E+02
     -7.751  0.1555E+02  0.2606E+02
     -7.621  0.2224E+02  0.2896E+02
     -7.490  0.4997E+02  0.3548E+02
     -7.360  0.2311E+02  0.3850E+02
     -7.229  0.1402E-01  0.3850E+02
     -7.099  0.2056E+02  0.4118E+02
     -6.968  0.6983E+02  0.5029E+02
     -6.838  0.1945E+02  0.5283E+02
     -6.707  0.7520E+01  0.5381E+02
     -6.577  0.2529E+02  0.5711E+02
     -6.447  0.3916E+02  0.6222E+02
     -6.316  0.5626E+02  0.6956E+02
     -6.186  0.4177E+02  0.7501E+02
     -6.055  0.3686E+02  0.7982E+02
     -5.925  0.7273E+02  0.8931E+02
     -5.794  0.5114E+02  0.9598E+02
     -5.664  0.1648E+01  0.9620E+02
     -5.533  0.1970E+02  0.9877E+02
     -5.403  0.7795E+02  0.1089E+03
     -5.272  0.1134E+03  0.1237E+03
     -5.142  0.5944E+02  0.1315E+03
     -5.011  0.1074E+03  0.1455E+03
     -4.881  0.8812E+02  0.1570E+03
     -4.751  0.5938E+02  0.1647E+03
     -4.620  0.2569E+03  0.1983E+03
     -4.490  0.1755E+03  0.2211E+03
     -4.359  0.2350E+03  0.2518E+03
     -4.229  0.2895E+03  0.2896E+03
     -4.098  0.2583E+03  0.3233E+03
     -3.968  0.2246E+03  0.3526E+03
     -3.837  0.4285E+03  0.4085E+03
     -3.707  0.5165E+03  0.4759E+03
     -3.576  0.4095E+03  0.5293E+03
     -3.446  0.4586E+03  0.5891E+03
     -3.315  0.3553E+03  0.6355E+03
     -3.185  0.3551E+03  0.6818E+03
     -3.055  0.5105E+03  0.7484E+03
     -2.924  0.3880E+03  0.7990E+03
     -2.794  0.5511E+03  0.8709E+03
     -2.663  0.5101E+03  0.9375E+03
     -2.533  0.5444E+03  0.1008E+04
     -2.402  0.6117E+03  0.1088E+04
     -2.272  0.7189E+03  0.1182E+04
     -2.141  0.9164E+03  0.1302E+04
     -2.011  0.7928E+03  0.1405E+04
     -1.880  0.9218E+03  0.1525E+04
     -1.750  0.5757E+03  0.1600E+04
     -1.619  0.5938E+03  0.1678E+04
     -1.489  0.5325E+03  0.1747E+04
     -1.359  0.7051E+03  0.1839E+04
     -1.228  0.7720E+03  0.1940E+04
     -1.098  0.5088E+03  0.2006E+04
     -0.967  0.7648E+03  0.2106E+04
     -0.837  0.8604E+03  0.2218E+04
     -0.706  0.6551E+03  0.2304E+04
     -0.576  0.1050E+04  0.2441E+04
     -0.445  0.1192E+04  0.2597E+04
     -0.315  0.4679E+03  0.2658E+04
     -0.184  0.1429E+03  0.2676E+04
     -0.054  0.1436E+03  0.2695E+04
      0.077  0.1632E+03  0.2716E+04
      0.207  0.4295E+02  0.2722E+04
      0.337  0.5104E+02  0.2728E+04
      0.468  0.8701E+02  0.2740E+04
      0.598  0.9211E+02  0.2752E+04
      0.729  0.9455E+02  0.2764E+04
      0.859  0.7765E+02  0.2774E+04
      0.990  0.1403E+03  0.2793E+04
      1.120  0.7238E+02  0.2802E+04
      1.251  0.2816E+02  0.2806E+04
      1.381  0.1242E+03  0.2822E+04
      1.512  0.2832E+02  0.2826E+04
      1.642  0.8533E+02  0.2837E+04
      1.773  0.9371E+02  0.2849E+04
      1.903  0.7669E+02  0.2859E+04
      2.033  0.9890E+02  0.2872E+04
      2.164  0.3917E+02  0.2877E+04
      2.294  0.1025E+03  0.2890E+04
      2.425  0.1098E+03  0.2905E+04
      2.555  0.2817E+02  0.2908E+04
      2.686  0.6027E+02  0.2916E+04
      2.816  0.1290E+02  0.2918E+04
      2.947  0.4749E+02  0.2924E+04
      3.077  0.1515E+03  0.2944E+04
      3.208  0.1550E+03  0.2964E+04
      3.338  0.2416E+02  0.2967E+04
      3.469  0.3808E+02  0.2972E+04
      3.599  0.8629E+02  0.2983E+04
      3.730  0.4986E+02  0.2990E+04
      3.860  0.4235E+02  0.2996E+04
      3.990  0.1963E+02  0.2998E+04
      4.121  0.1039E+02  0.2999E+04
      4.251  0.6348E+02  0.3008E+04
      4.382  0.4584E+02  0.3014E+04
      4.512  0.8306E+02  0.3025E+04
      4.643  0.5844E+02  0.3032E+04
      4.773  0.4474E+02  0.3038E+04
      4.904  0.1206E+00  0.3038E+04
      5.034  0.8810E-08  0.3038E+04
      5.165  0.0000E+00  0.3038E+04
      5.295  0.0000E+00  0.3038E+04
      5.426  0.0000E+00  0.3038E+04
      5.556  0.0000E+00  0.3038E+04
      5.686  0.0000E+00  0.3038E+04
      5.817  0.0000E+00  0.3038E+04
      5.947  0.0000E+00  0.3038E+04
      6.078  0.0000E+00  0.3038E+04
      6.208  0.0000E+00  0.3038E+04
      6.339  0.0000E+00  0.3038E+04
      6.469  0.0000E+00  0.3038E+04
