  254  254    1    1
  0.2268316E+02  0.1514622E-08  0.1514622E-08  0.2900000E-08  0.5000000E-15
   1.0000000000000000E-004
  CAR 
 NiAl                                    
   2532      4   1519
 
  0.1262379E-14  0.1262379E-14  0.1262379E-14  0.2500000E+00
    1      -30.890452   1.000000
    2      -14.691042   1.000000
    3       -9.681650   1.000000
    4       -9.617096   1.000000
    5       -9.068916   1.000000
    6       -9.050260   1.000000
    7       -8.536959   1.000000
    8       -8.159272   1.000000
    9       -8.159205   1.000000
   10       -8.159181   1.000000
   11       -8.159140   1.000000
   12       -8.159124   1.000000
   13       -8.158806   1.000000
   14       -7.708244   1.000000
   15       -7.653380   1.000000
   16       -7.653220   1.000000
   17       -7.653188   1.000000
   18       -7.653181   1.000000
   19       -7.653172   1.000000
   20       -7.652330   1.000000
   21       -6.865386   1.000000
   22       -6.865158   1.000000
   23       -6.865083   1.000000
   24       -6.865071   1.000000
   25       -6.865066   1.000000
   26       -6.863818   1.000000
   27       -6.678043   1.000000
   28       -6.518835   1.000000
   29       -6.518778   1.000000
   30       -6.518737   1.000000
   31       -6.518712   1.000000
   32       -6.518673   1.000000
   33       -6.518661   1.000000
   34       -6.096353   1.000000
   35       -6.096204   1.000000
   36       -6.096166   1.000000
   37       -6.096111   1.000000
   38       -6.096103   1.000000
   39       -6.095981   1.000000
   40       -5.893691   1.000000
   41       -5.893469   1.000000
   42       -5.893375   1.000000
   43       -5.893366   1.000000
   44       -5.893351   1.000000
   45       -5.891599   1.000000
   46       -5.888142   1.000000
   47       -5.888138   1.000000
   48       -5.888097   1.000000
   49       -5.888071   1.000000
   50       -5.888066   1.000000
   51       -5.888006   1.000000
   52       -5.653480   1.000000
   53       -5.553288   1.000000
   54       -5.553163   1.000000
   55       -5.553125   1.000000
   56       -5.553109   1.000000
   57       -5.553064   1.000000
   58       -5.553020   1.000000
   59       -5.463511   1.000000
   60       -5.463283   1.000000
   61       -5.463213   1.000000
   62       -5.463123   1.000000
   63       -5.463095   1.000000
   64       -5.462921   1.000000
   65       -5.096031   1.000000
   66       -5.095844   1.000000
   67       -5.095826   1.000000
   68       -5.095818   1.000000
   69       -5.095740   1.000000
   70       -5.095693   1.000000
   71       -4.998189   1.000000
   72       -4.943048   1.000000
   73       -4.942785   1.000000
   74       -4.942641   1.000000
   75       -4.942633   1.000000
   76       -4.942627   1.000000
   77       -4.941041   1.000000
   78       -4.808002   1.000000
   79       -4.750242   1.000000
   80       -4.750227   1.000000
   81       -4.750168   1.000000
   82       -4.732432   1.000000
   83       -4.732196   1.000000
   84       -4.732140   1.000000
   85       -4.732041   1.000000
   86       -4.732025   1.000000
   87       -4.731755   1.000000
   88       -4.628211   1.000000
   89       -4.628086   1.000000
   90       -4.628073   1.000000
   91       -4.627978   1.000000
   92       -4.627958   1.000000
   93       -4.627857   1.000000
   94       -4.594200   1.000000
   95       -4.594156   1.000000
   96       -4.594024   1.000000
   97       -4.518146   1.000000
   98       -4.518082   1.000000
   99       -4.518061   1.000000
  100       -4.518030   1.000000
  101       -4.518017   1.000000
  102       -4.517989   1.000000
  103       -4.517978   1.000000
  104       -4.517965   1.000000
  105       -4.517949   1.000000
  106       -4.517929   1.000000
  107       -4.517917   1.000000
  108       -4.517889   1.000000
  109       -4.472267   1.000000
  110       -4.472216   1.000000
  111       -4.472143   1.000000
  112       -4.385871   1.000000
  113       -4.385797   1.000000
  114       -4.385687   1.000000
  115       -4.364900   1.000000
  116       -4.364537   1.000000
  117       -4.364376   1.000000
  118       -4.364356   1.000000
  119       -4.364337   1.000000
  120       -4.363699   1.000000
  121       -4.319706   1.000000
  122       -4.319680   1.000000
  123       -4.319610   1.000000
  124       -4.319580   1.000000
  125       -4.319561   1.000000
  126       -4.319530   1.000000
  127       -4.319523   1.000000
  128       -4.319505   1.000000
  129       -4.319495   1.000000
  130       -4.319465   1.000000
  131       -4.319457   1.000000
  132       -4.319448   1.000000
  133       -4.285219   1.000000
  134       -4.285169   1.000000
  135       -4.285149   1.000000
  136       -4.285103   1.000000
  137       -4.285069   1.000000
  138       -4.285052   1.000000
  139       -4.285041   1.000000
  140       -4.284986   1.000000
  141       -4.284981   1.000000
  142       -4.284964   1.000000
  143       -4.284893   1.000000
  144       -4.284866   1.000000
  145       -4.240623   1.000000
  146       -4.240354   1.000000
  147       -4.240325   1.000000
  148       -4.240306   1.000000
  149       -4.240266   1.000000
  150       -4.240124   1.000000
  151       -4.204381   1.000000
  152       -4.204231   1.000000
  153       -4.204201   1.000000
  154       -4.204107   1.000000
  155       -4.204078   1.000000
  156       -4.203911   1.000000
  157       -4.184156   1.000000
  158       -4.184129   1.000000
  159       -4.184017   1.000000
  160       -4.147351   1.000000
  161       -4.147317   1.000000
  162       -4.147289   1.000000
  163       -4.147248   1.000000
  164       -4.147198   1.000000
  165       -4.147160   1.000000
  166       -4.147101   1.000000
  167       -4.147049   1.000000
  168       -4.147024   1.000000
  169       -4.147006   1.000000
  170       -4.146986   1.000000
  171       -4.146948   1.000000
  172       -4.077589   1.000000
  173       -4.077362   1.000000
  174       -4.077285   1.000000
  175       -4.077238   1.000000
  176       -4.077182   1.000000
  177       -4.076995   1.000000
  178       -4.037769   1.000000
  179       -4.037747   1.000000
  180       -4.037568   1.000000
  181       -3.970095   1.000000
  182       -3.969982   1.000000
  183       -3.969901   1.000000
  184       -3.947673   1.000000
  185       -3.947599   1.000000
  186       -3.947439   1.000000
  187       -3.947375   1.000000
  188       -3.947357   1.000000
  189       -3.947290   1.000000
  190       -3.947209   1.000000
  191       -3.947158   1.000000
  192       -3.947118   1.000000
  193       -3.947076   1.000000
  194       -3.947058   1.000000
  195       -3.947023   1.000000
  196       -3.884220   1.000000
  197       -3.884202   1.000000
  198       -3.884021   1.000000
  199       -3.829959   1.000000
  200       -3.829854   1.000000
  201       -3.829756   1.000000
  202       -3.827566   1.000000
  203       -3.827443   1.000000
  204       -3.827378   1.000000
  205       -3.827299   1.000000
  206       -3.827281   1.000000
  207       -3.827099   1.000000
  208       -3.757878   1.000000
  209       -3.757832   1.000000
  210       -3.757780   1.000000
  211       -3.757768   1.000000
  212       -3.757748   1.000000
  213       -3.757738   1.000000
  214       -3.757719   1.000000
  215       -3.757684   1.000000
  216       -3.757634   1.000000
  217       -3.757560   1.000000
  218       -3.757545   1.000000
  219       -3.757512   1.000000
  220       -3.751797   1.000000
  221       -3.751757   1.000000
  222       -3.751656   1.000000
  223       -3.751638   1.000000
  224       -3.751609   1.000000
  225       -3.751493   1.000000
  226       -3.699357   1.000000
  227       -3.699253   1.000000
  228       -3.699102   1.000000
  229       -3.698978   1.000000
  230       -3.698925   1.000000
  231       -3.698816   1.000000
  232       -3.698769   1.000000
  233       -3.698711   1.000000
  234       -3.698689   1.000000
  235       -3.698685   1.000000
  236       -3.698632   1.000000
  237       -3.698596   1.000000
  238       -3.676043   1.000000
  239       -3.675873   1.000000
  240       -3.675806   1.000000
  241       -3.675747   1.000000
  242       -3.675702   1.000000
  243       -3.675671   1.000000
  244       -3.636332   1.000000
  245       -3.636258   1.000000
  246       -3.636243   1.000000
  247       -3.636212   1.000000
  248       -3.636135   1.000000
  249       -3.636094   1.000000
  250       -3.632437   1.000000
  251       -3.632391   1.000000
  252       -3.632313   1.000000
  253       -3.632301   1.000000
  254       -3.624159   1.000000
  255       -3.624053   1.000000
  256       -3.569890   1.000000
  257       -3.569776   1.000000
  258       -3.569649   1.000000
  259       -3.569613   1.000000
  260       -3.569574   1.000000
  261       -3.569567   1.000000
  262       -3.569529   1.000000
  263       -3.569504   1.000000
  264       -3.569486   1.000000
  265       -3.569405   1.000000
  266       -3.569379   1.000000
  267       -3.569354   1.000000
  268       -3.561243   1.000000
  269       -3.561166   1.000000
  270       -3.561042   1.000000
  271       -3.536581   1.000000
  272       -3.536405   1.000000
  273       -3.536398   1.000000
  274       -3.536371   1.000000
  275       -3.514613   1.000000
  276       -3.514381   1.000000
  277       -3.514311   1.000000
  278       -3.514215   1.000000
  279       -3.514189   1.000000
  280       -3.514048   1.000000
  281       -3.502718   1.000000
  282       -3.502628   1.000000
  283       -3.492495   1.000000
  284       -3.492449   1.000000
  285       -3.492423   1.000000
  286       -3.492369   1.000000
  287       -3.490587   1.000000
  288       -3.490490   1.000000
  289       -3.487720   1.000000
  290       -3.487518   1.000000
  291       -3.487444   1.000000
  292       -3.487374   1.000000
  293       -3.487296   1.000000
  294       -3.487291   1.000000
  295       -3.419238   1.000000
  296       -3.419045   1.000000
  297       -3.418724   1.000000
  298       -3.418718   1.000000
  299       -3.411752   1.000000
  300       -3.411560   1.000000
  301       -3.411404   1.000000
  302       -3.411329   1.000000
  303       -3.411290   1.000000
  304       -3.411267   1.000000
  305       -3.411225   1.000000
  306       -3.411189   1.000000
  307       -3.411171   1.000000
  308       -3.411150   1.000000
  309       -3.411115   1.000000
  310       -3.411057   1.000000
  311       -3.339654   1.000000
  312       -3.339624   1.000000
  313       -3.339527   1.000000
  314       -3.339488   1.000000
  315       -3.339466   1.000000
  316       -3.339407   1.000000
  317       -3.304183   1.000000
  318       -3.304129   1.000000
  319       -3.303881   1.000000
  320       -3.303647   1.000000
  321       -3.303564   1.000000
  322       -3.303544   1.000000
  323       -3.303479   1.000000
  324       -3.303452   1.000000
  325       -3.303439   1.000000
  326       -3.303385   1.000000
  327       -3.303337   1.000000
  328       -3.303297   1.000000
  329       -3.293187   1.000000
  330       -3.292934   1.000000
  331       -3.292860   1.000000
  332       -3.292832   1.000000
  333       -3.292777   1.000000
  334       -3.292750   1.000000
  335       -3.286172   1.000000
  336       -3.286101   1.000000
  337       -3.285977   1.000000
  338       -3.285880   1.000000
  339       -3.285819   1.000000
  340       -3.285667   1.000000
  341       -3.198294   1.000000
  342       -3.198129   1.000000
  343       -3.198057   1.000000
  344       -3.158385   1.000000
  345       -3.158087   1.000000
  346       -3.157910   1.000000
  347       -3.157876   1.000000
  348       -3.157817   1.000000
  349       -3.157746   1.000000
  350       -3.146854   1.000000
  351       -3.146554   1.000000
  352       -3.124453   1.000000
  353       -3.124122   1.000000
  354       -3.124022   1.000000
  355       -3.123776   1.000000
  356       -3.123759   1.000000
  357       -3.123649   1.000000
  358       -3.123607   1.000000
  359       -3.123567   1.000000
  360       -3.123535   1.000000
  361       -3.123474   1.000000
  362       -3.123465   1.000000
  363       -3.123402   1.000000
  364       -3.114542   1.000000
  365       -3.114220   1.000000
  366       -3.052917   1.000000
  367       -3.052788   1.000000
  368       -3.052752   1.000000
  369       -3.052647   1.000000
  370       -3.052609   1.000000
  371       -3.052502   1.000000
  372       -3.027421   1.000000
  373       -3.027200   1.000000
  374       -3.026975   1.000000
  375       -3.026845   1.000000
  376       -3.026812   1.000000
  377       -3.026751   1.000000
  378       -3.026570   1.000000
  379       -3.026498   1.000000
  380       -3.026429   1.000000
  381       -3.026401   1.000000
  382       -3.026357   1.000000
  383       -3.026282   1.000000
  384       -2.975941   1.000000
  385       -2.975527   1.000000
  386       -2.975227   1.000000
  387       -2.975201   1.000000
  388       -2.975048   1.000000
  389       -2.975014   1.000000
  390       -2.974965   1.000000
  391       -2.974931   1.000000
  392       -2.974885   1.000000
  393       -2.974883   1.000000
  394       -2.974863   1.000000
  395       -2.974837   1.000000
  396       -2.919740   1.000000
  397       -2.919731   1.000000
  398       -2.919601   1.000000
  399       -2.919560   1.000000
  400       -2.919496   1.000000
  401       -2.919439   1.000000
  402       -2.861604   1.000000
  403       -2.861192   1.000000
  404       -2.861102   1.000000
  405       -2.861028   1.000000
  406       -2.860972   1.000000
  407       -2.860571   1.000000
  408       -2.850776   1.000000
  409       -2.850654   1.000000
  410       -2.850473   1.000000
  411       -2.850468   1.000000
  412       -2.850453   1.000000
  413       -2.850323   1.000000
  414       -2.824198   1.000000
  415       -2.824168   1.000000
  416       -2.824084   1.000000
  417       -2.824062   1.000000
  418       -2.824047   1.000000
  419       -2.824011   1.000000
  420       -2.818553   1.000000
  421       -2.818175   1.000000
  422       -2.818094   1.000000
  423       -2.818004   1.000000
  424       -2.817934   1.000000
  425       -2.817775   1.000000
  426       -2.795093   1.000000
  427       -2.794924   1.000000
  428       -2.794761   1.000000
  429       -2.794670   1.000000
  430       -2.794652   1.000000
  431       -2.794540   1.000000
  432       -2.790951   1.000000
  433       -2.790769   1.000000
  434       -2.790496   1.000000
  435       -2.790463   1.000000
  436       -2.790326   1.000000
  437       -2.790306   1.000000
  438       -2.790276   1.000000
  439       -2.790258   1.000000
  440       -2.790243   1.000000
  441       -2.790222   1.000000
  442       -2.790208   1.000000
  443       -2.790183   1.000000
  444       -2.727569   1.000000
  445       -2.727304   1.000000
  446       -2.727187   1.000000
  447       -2.717501   1.000000
  448       -2.717395   1.000000
  449       -2.717365   1.000000
  450       -2.717235   1.000000
  451       -2.717229   1.000000
  452       -2.717145   1.000000
  453       -2.717139   1.000000
  454       -2.717121   1.000000
  455       -2.717061   1.000000
  456       -2.717012   1.000000
  457       -2.716981   1.000000
  458       -2.716954   1.000000
  459       -2.713959   1.000000
  460       -2.713793   1.000000
  461       -2.713576   1.000000
  462       -2.713495   1.000000
  463       -2.713462   1.000000
  464       -2.713304   1.000000
  465       -2.676139   1.000000
  466       -2.676104   1.000000
  467       -2.676029   1.000000
  468       -2.675973   1.000000
  469       -2.626494   1.000000
  470       -2.626363   1.000000
  471       -2.626270   1.000000
  472       -2.626253   1.000000
  473       -2.626240   1.000000
  474       -2.626048   1.000000
  475       -2.622771   1.000000
  476       -2.622601   1.000000
  477       -2.620853   1.000000
  478       -2.620718   1.000000
  479       -2.620509   1.000000
  480       -2.620463   1.000000
  481       -2.620448   1.000000
  482       -2.620411   1.000000
  483       -2.620369   1.000000
  484       -2.620216   1.000000
  485       -2.620175   1.000000
  486       -2.620105   1.000000
  487       -2.620044   1.000000
  488       -2.619965   1.000000
  489       -2.614796   1.000000
  490       -2.614731   1.000000
  491       -2.614683   1.000000
  492       -2.614468   1.000000
  493       -2.614410   1.000000
  494       -2.614392   1.000000
  495       -2.614369   1.000000
  496       -2.614336   1.000000
  497       -2.614315   1.000000
  498       -2.614310   1.000000
  499       -2.614273   1.000000
  500       -2.614227   1.000000
  501       -2.562583   1.000000
  502       -2.562404   1.000000
  503       -2.562384   1.000000
  504       -2.562311   1.000000
  505       -2.562272   1.000000
  506       -2.561617   1.000000
  507       -2.554395   1.000000
  508       -2.554348   1.000000
  509       -2.554279   1.000000
  510       -2.554231   1.000000
  511       -2.554211   1.000000
  512       -2.554163   1.000000
  513       -2.528609   1.000000
  514       -2.528536   1.000000
  515       -2.528337   1.000000
  516       -2.528324   1.000000
  517       -2.518098   1.000000
  518       -2.502106   1.000000
  519       -2.501069   1.000000
  520       -2.500775   1.000000
  521       -2.500646   1.000000
  522       -2.500435   1.000000
  523       -2.500422   1.000000
  524       -2.479070   1.000000
  525       -2.456528   1.000000
  526       -2.455947   1.000000
  527       -2.455635   1.000000
  528       -2.455607   1.000000
  529       -2.455513   1.000000
  530       -2.455432   1.000000
  531       -2.455422   1.000000
  532       -2.455351   1.000000
  533       -2.455319   1.000000
  534       -2.455316   1.000000
  535       -2.455289   1.000000
  536       -2.455197   1.000000
  537       -2.441186   1.000000
  538       -2.439834   1.000000
  539       -2.439569   1.000000
  540       -2.439518   1.000000
  541       -2.439208   1.000000
  542       -2.438694   1.000000
  543       -2.412400   1.000000
  544       -2.412312   1.000000
  545       -2.412131   1.000000
  546       -2.397717   1.000000
  547       -2.397412   1.000000
  548       -2.397400   1.000000
  549       -2.397353   1.000000
  550       -2.397242   1.000000
  551       -2.396404   1.000000
  552       -2.383905   1.000000
  553       -2.383770   1.000000
  554       -2.383703   1.000000
  555       -2.383643   1.000000
  556       -2.383539   1.000000
  557       -2.383524   1.000000
  558       -2.383487   1.000000
  559       -2.383477   1.000000
  560       -2.383440   1.000000
  561       -2.383416   1.000000
  562       -2.383386   1.000000
  563       -2.383325   1.000000
  564       -2.375931   1.000000
  565       -2.375255   1.000000
  566       -2.375182   1.000000
  567       -2.375130   1.000000
  568       -2.375041   1.000000
  569       -2.374278   1.000000
  570       -2.373557   1.000000
  571       -2.373459   1.000000
  572       -2.373454   1.000000
  573       -2.323638   1.000000
  574       -2.323493   1.000000
  575       -2.323386   1.000000
  576       -2.323232   1.000000
  577       -2.323140   1.000000
  578       -2.322976   1.000000
  579       -2.321434   1.000000
  580       -2.321248   1.000000
  581       -2.319807   1.000000
  582       -2.319592   1.000000
  583       -2.308588   1.000000
  584       -2.308505   1.000000
  585       -2.308265   1.000000
  586       -2.308240   1.000000
  587       -2.308143   1.000000
  588       -2.308055   1.000000
  589       -2.290343   1.000000
  590       -2.280153   1.000000
  591       -2.279984   1.000000
  592       -2.279919   1.000000
  593       -2.279831   1.000000
  594       -2.279770   1.000000
  595       -2.279643   1.000000
  596       -2.266403   1.000000
  597       -2.266364   1.000000
  598       -2.266327   1.000000
  599       -2.266315   1.000000
  600       -2.266247   1.000000
  601       -2.266234   1.000000
  602       -2.261277   1.000000
  603       -2.261226   1.000000
  604       -2.261065   1.000000
  605       -2.247434   1.000000
  606       -2.247386   1.000000
  607       -2.247331   1.000000
  608       -2.247288   1.000000
  609       -2.247247   1.000000
  610       -2.247211   1.000000
  611       -2.231721   1.000000
  612       -2.231492   1.000000
  613       -2.207407   1.000000
  614       -2.207304   1.000000
  615       -2.207212   1.000000
  616       -2.204041   1.000000
  617       -2.203794   1.000000
  618       -2.203456   1.000000
  619       -2.203057   1.000000
  620       -2.202942   1.000000
  621       -2.202841   1.000000
  622       -2.202518   1.000000
  623       -2.186957   1.000000
  624       -2.186760   1.000000
  625       -2.172464   1.000000
  626       -2.172446   1.000000
  627       -2.172367   1.000000
  628       -2.172352   1.000000
  629       -2.172296   1.000000
  630       -2.172237   1.000000
  631       -2.166613   1.000000
  632       -2.166416   1.000000
  633       -2.166386   1.000000
  634       -2.148979   1.000000
  635       -2.148924   1.000000
  636       -2.148857   1.000000
  637       -2.148814   1.000000
  638       -2.148746   1.000000
  639       -2.148704   1.000000
  640       -2.137871   1.000000
  641       -2.137655   1.000000
  642       -2.137594   1.000000
  643       -2.127704   1.000000
  644       -2.126120   1.000000
  645       -2.125118   1.000000
  646       -2.124972   1.000000
  647       -2.124966   1.000000
  648       -2.124885   1.000000
  649       -2.121878   1.000000
  650       -2.121848   1.000000
  651       -2.121279   1.000000
  652       -2.121117   1.000000
  653       -2.121009   1.000000
  654       -2.120889   1.000000
  655       -2.120853   1.000000
  656       -2.120797   1.000000
  657       -2.120778   1.000000
  658       -2.120756   1.000000
  659       -2.120742   1.000000
  660       -2.120684   1.000000
  661       -2.112292   1.000000
  662       -2.112149   1.000000
  663       -2.111581   1.000000
  664       -2.111391   1.000000
  665       -2.111342   1.000000
  666       -2.111302   1.000000
  667       -2.106553   1.000000
  668       -2.106370   1.000000
  669       -2.106266   1.000000
  670       -2.106058   1.000000
  671       -2.105918   1.000000
  672       -2.105895   1.000000
  673       -2.060005   1.000000
  674       -2.059952   1.000000
  675       -2.059591   1.000000
  676       -2.059551   1.000000
  677       -2.059467   1.000000
  678       -2.059366   1.000000
  679       -2.055011   1.000000
  680       -2.037771   1.000000
  681       -2.037481   1.000000
  682       -2.037364   1.000000
  683       -2.037350   1.000000
  684       -2.037311   1.000000
  685       -2.037246   1.000000
  686       -2.017545   1.000000
  687       -2.015032   1.000000
  688       -2.013175   1.000000
  689       -2.013141   1.000000
  690       -2.009894   1.000000
  691       -2.009291   1.000000
  692       -2.008765   1.000000
  693       -2.008596   1.000000
  694       -2.008473   1.000000
  695       -2.008125   1.000000
  696       -2.008024   1.000000
  697       -2.007989   1.000000
  698       -2.007952   1.000000
  699       -2.007913   1.000000
  700       -2.007878   1.000000
  701       -2.007795   1.000000
  702       -2.002373   1.000000
  703       -2.002171   1.000000
  704       -1.993517   1.000000
  705       -1.993445   1.000000
  706       -1.993413   1.000000
  707       -1.993370   1.000000
  708       -1.993302   1.000000
  709       -1.993286   1.000000
  710       -1.993243   1.000000
  711       -1.993198   1.000000
  712       -1.993183   1.000000
  713       -1.993170   1.000000
  714       -1.993134   1.000000
  715       -1.993123   1.000000
  716       -1.990362   1.000000
  717       -1.990157   1.000000
  718       -1.967394   1.000000
  719       -1.967344   1.000000
  720       -1.967275   1.000000
  721       -1.967199   1.000000
  722       -1.967155   1.000000
  723       -1.967137   1.000000
  724       -1.946083   1.000000
  725       -1.944811   1.000000
  726       -1.944501   1.000000
  727       -1.944035   1.000000
  728       -1.943979   1.000000
  729       -1.943649   1.000000
  730       -1.924806   1.000000
  731       -1.922997   1.000000
  732       -1.922372   1.000000
  733       -1.921959   1.000000
  734       -1.921809   1.000000
  735       -1.921794   1.000000
  736       -1.921744   1.000000
  737       -1.921729   1.000000
  738       -1.921676   1.000000
  739       -1.921656   1.000000
  740       -1.921634   1.000000
  741       -1.921575   1.000000
  742       -1.877782   1.000000
  743       -1.877708   1.000000
  744       -1.877656   1.000000
  745       -1.877555   1.000000
  746       -1.877520   1.000000
  747       -1.877458   1.000000
  748       -1.871092   1.000000
  749       -1.870946   1.000000
  750       -1.870931   1.000000
  751       -1.870792   1.000000
  752       -1.870746   1.000000
  753       -1.870171   1.000000
  754       -1.825927   1.000000
  755       -1.823938   1.000000
  756       -1.823285   1.000000
  757       -1.823052   1.000000
  758       -1.822995   1.000000
  759       -1.822713   1.000000
  760       -1.822704   1.000000
  761       -1.822699   1.000000
  762       -1.822645   1.000000
  763       -1.822624   1.000000
  764       -1.822580   1.000000
  765       -1.822527   1.000000
  766       -1.819227   1.000000
  767       -1.819170   1.000000
  768       -1.818879   1.000000
  769       -1.818864   1.000000
  770       -1.818833   1.000000
  771       -1.818635   1.000000
  772       -1.812617   1.000000
  773       -1.812458   1.000000
  774       -1.812219   1.000000
  775       -1.812187   1.000000
  776       -1.812170   1.000000
  777       -1.812060   1.000000
  778       -1.780385   1.000000
  779       -1.780304   1.000000
  780       -1.780201   1.000000
  781       -1.776300   1.000000
  782       -1.776177   1.000000
  783       -1.776103   1.000000
  784       -1.776053   1.000000
  785       -1.776032   1.000000
  786       -1.775946   1.000000
  787       -1.761993   1.000000
  788       -1.759013   1.000000
  789       -1.757800   1.000000
  790       -1.757744   1.000000
  791       -1.757508   1.000000
  792       -1.756886   1.000000
  793       -1.751609   1.000000
  794       -1.751507   1.000000
  795       -1.751450   1.000000
  796       -1.751339   1.000000
  797       -1.751203   1.000000
  798       -1.751173   1.000000
  799       -1.731119   1.000000
  800       -1.730862   1.000000
  801       -1.730817   1.000000
  802       -1.730722   1.000000
  803       -1.730632   1.000000
  804       -1.730519   1.000000
  805       -1.726072   1.000000
  806       -1.724068   1.000000
  807       -1.723322   1.000000
  808       -1.723093   1.000000
  809       -1.722999   1.000000
  810       -1.722814   1.000000
  811       -1.722684   1.000000
  812       -1.722666   1.000000
  813       -1.722634   1.000000
  814       -1.722603   1.000000
  815       -1.722567   1.000000
  816       -1.722486   1.000000
  817       -1.686918   1.000000
  818       -1.684947   1.000000
  819       -1.684561   1.000000
  820       -1.683987   1.000000
  821       -1.683896   1.000000
  822       -1.683703   1.000000
  823       -1.683644   1.000000
  824       -1.683565   1.000000
  825       -1.683559   1.000000
  826       -1.683488   1.000000
  827       -1.683468   1.000000
  828       -1.683415   1.000000
  829       -1.650100   1.000000
  830       -1.649926   1.000000
  831       -1.649697   1.000000
  832       -1.649689   1.000000
  833       -1.649529   1.000000
  834       -1.649522   1.000000
  835       -1.649334   1.000000
  836       -1.648993   1.000000
  837       -1.648928   1.000000
  838       -1.644802   1.000000
  839       -1.644651   1.000000
  840       -1.644607   1.000000
  841       -1.644542   1.000000
  842       -1.644417   1.000000
  843       -1.644366   1.000000
  844       -1.634382   1.000000
  845       -1.633243   1.000000
  846       -1.633187   1.000000
  847       -1.633102   1.000000
  848       -1.633023   1.000000
  849       -1.632993   1.000000
  850       -1.627279   1.000000
  851       -1.625193   1.000000
  852       -1.624963   1.000000
  853       -1.624810   1.000000
  854       -1.624572   1.000000
  855       -1.622708   1.000000
  856       -1.622704   1.000000
  857       -1.621443   1.000000
  858       -1.620884   1.000000
  859       -1.620566   1.000000
  860       -1.620542   1.000000
  861       -1.618725   1.000000
  862       -1.600959   1.000000
  863       -1.600528   1.000000
  864       -1.600424   1.000000
  865       -1.567560   1.000000
  866       -1.565841   1.000000
  867       -1.565773   1.000000
  868       -1.565648   1.000000
  869       -1.565476   1.000000
  870       -1.565276   1.000000
  871       -1.535765   1.000000
  872       -1.535215   1.000000
  873       -1.535019   1.000000
  874       -1.534945   1.000000
  875       -1.534813   1.000000
  876       -1.534792   1.000000
  877       -1.534629   1.000000
  878       -1.534552   1.000000
  879       -1.534508   1.000000
  880       -1.534459   1.000000
  881       -1.534335   1.000000
  882       -1.534242   1.000000
  883       -1.526466   1.000000
  884       -1.517905   1.000000
  885       -1.515541   1.000000
  886       -1.514975   1.000000
  887       -1.514854   1.000000
  888       -1.514598   1.000000
  889       -1.507403   1.000000
  890       -1.462392   1.000000
  891       -1.462310   1.000000
  892       -1.462176   1.000000
  893       -1.462043   1.000000
  894       -1.461988   1.000000
  895       -1.461967   1.000000
  896       -1.409959   1.000000
  897       -1.408667   1.000000
  898       -1.408231   1.000000
  899       -1.407887   1.000000
  900       -1.407781   1.000000
  901       -1.407434   1.000000