       N       E                     dE             d eps       ncg     rms          rms(c)
DAV:   1     0.223495807138E+05    0.22350E+05   -0.98545E+05 12200   0.134E+03
DAV:   2     0.101491099668E+03   -0.22248E+05   -0.21259E+05 12152   0.469E+02
DAV:   3    -0.133726863502E+04   -0.14388E+04   -0.12101E+04 13704   0.131E+02
DAV:   4    -0.155515922650E+04   -0.21789E+03   -0.18586E+03 20816   0.488E+01
DAV:   5    -0.156727723706E+04   -0.12118E+02   -0.96381E+01 18688   0.116E+01    0.149E+02
DAV:   6    -0.194534021464E+04   -0.37806E+03   -0.27970E+03 15720   0.167E+02    0.290E+02
DAV:   7    -0.177140285646E+04    0.17394E+03   -0.10707E+03 13432   0.146E+02    0.240E+02
DAV:   8    -0.231858805752E+04   -0.54719E+03   -0.60123E+02 16576   0.140E+02    0.341E+02
DAV:   9    -0.177236997940E+04    0.54622E+03   -0.30455E+02 14664   0.918E+01    0.255E+02
DAV:  10    -0.171412907822E+04    0.58241E+02   -0.29531E+02 15440   0.777E+01    0.226E+02
DAV:  11    -0.151921835029E+04    0.19491E+03   -0.27371E+02 14160   0.711E+01    0.171E+02
DAV:  12    -0.161169407884E+04   -0.92476E+02   -0.52854E+02 16472   0.110E+02    0.219E+02
DAV:  13    -0.154022327271E+04    0.71471E+02   -0.26962E+02 15112   0.595E+01    0.178E+02
DAV:  14    -0.150594119494E+04    0.34282E+02   -0.16655E+02 13232   0.811E+01    0.166E+02
DAV:  15    -0.148851876169E+04    0.17422E+02   -0.90050E+01 13024   0.630E+01    0.173E+02
DAV:  16    -0.147863902766E+04    0.98797E+01   -0.12579E+02 17368   0.605E+01    0.179E+02
DAV:  17    -0.142635352418E+04    0.52286E+02   -0.52943E+01 12936   0.411E+01    0.151E+02
DAV:  18    -0.140322428262E+04    0.23129E+02   -0.53556E+01 13344   0.412E+01    0.142E+02
DAV:  19    -0.137573391179E+04    0.27490E+02   -0.38004E+01 12784   0.334E+01    0.115E+02
DAV:  20    -0.135169206794E+04    0.24042E+02   -0.24330E+01 12784   0.284E+01    0.829E+01
DAV:  21    -0.134270282324E+04    0.89892E+01   -0.11027E+01 13264   0.158E+01    0.721E+01
DAV:  22    -0.134064845168E+04    0.20544E+01   -0.77609E+00 13152   0.144E+01    0.723E+01
DAV:  23    -0.133876121581E+04    0.18872E+01   -0.65408E+00 13120   0.140E+01    0.668E+01
DAV:  24    -0.133487590741E+04    0.38853E+01   -0.49538E+00 13104   0.125E+01    0.526E+01
DAV:  25    -0.133258126763E+04    0.22946E+01   -0.32042E+00 13248   0.980E+00    0.487E+01
DAV:  26    -0.133230818181E+04    0.27309E+00   -0.27394E+00 13280   0.877E+00    0.496E+01
DAV:  27    -0.133243887761E+04   -0.13070E+00   -0.36036E+00 13312   0.119E+01    0.514E+01
DAV:  28    -0.133202011515E+04    0.41876E+00   -0.35180E+00 13392   0.120E+01    0.504E+01
DAV:  29    -0.132998085877E+04    0.20393E+01   -0.27689E+00 13344   0.108E+01    0.473E+01
DAV:  30    -0.133008397398E+04   -0.10312E+00   -0.19844E+00 13344   0.805E+00    0.517E+01
DAV:  31    -0.132867966793E+04    0.14043E+01   -0.14109E+00 13336   0.590E+00    0.457E+01
DAV:  32    -0.132752025473E+04    0.11594E+01   -0.94013E-01 13344   0.467E+00    0.394E+01
DAV:  33    -0.132671777336E+04    0.80248E+00   -0.68878E-01 13320   0.367E+00    0.344E+01
DAV:  34    -0.132613780817E+04    0.57997E+00   -0.54801E-01 13424   0.372E+00    0.298E+01
DAV:  35    -0.132695701688E+04   -0.81921E+00   -0.12506E+00 13632   0.654E+00    0.327E+01
DAV:  36    -0.132833479838E+04   -0.13778E+01   -0.13996E+00 13592   0.785E+00    0.440E+01
DAV:  37    -0.132713079721E+04    0.12040E+01   -0.12007E+00 13520   0.613E+00    0.377E+01
DAV:  38    -0.132598347071E+04    0.11473E+01   -0.11623E+00 13440   0.625E+00    0.293E+01
DAV:  39    -0.132596876087E+04    0.14710E-01   -0.10332E+00 13472   0.601E+00    0.293E+01
DAV:  40    -0.132544028767E+04    0.52847E+00   -0.10805E+00 13440   0.609E+00    0.243E+01
DAV:  41    -0.132527265173E+04    0.16764E+00   -0.91842E-01 13408   0.633E+00    0.243E+01
DAV:  42    -0.132466989922E+04    0.60275E+00   -0.66739E-01 13392   0.475E+00    0.193E+01
DAV:  43    -0.132440998240E+04    0.25992E+00   -0.43019E-01 13344   0.325E+00    0.163E+01
DAV:  44    -0.132425862861E+04    0.15135E+00   -0.37419E-01 13360   0.273E+00    0.130E+01
DAV:  45    -0.132408813441E+04    0.17049E+00   -0.27816E-01 13360   0.225E+00    0.110E+01
DAV:  46    -0.132390476008E+04    0.18337E+00   -0.11021E-01 13328   0.144E+00    0.665E+00
DAV:  47    -0.132408352126E+04   -0.17876E+00   -0.14554E-01 13344   0.178E+00    0.104E+01
DAV:  48    -0.132415672942E+04   -0.73208E-01   -0.20552E-01 13360   0.227E+00    0.119E+01
DAV:  49    -0.132403011130E+04    0.12662E+00   -0.14661E-01 13352   0.199E+00    0.804E+00
DAV:  50    -0.132400314444E+04    0.26967E-01   -0.76746E-02 13376   0.155E+00    0.835E+00
DAV:  51    -0.132422429313E+04   -0.22115E+00   -0.19832E-01 19512   0.208E+00    0.131E+01
DAV:  52    -0.132409926599E+04    0.12503E+00   -0.15041E-01 13888   0.197E+00    0.107E+01
DAV:  53    -0.132400234993E+04    0.96916E-01   -0.15600E-01 13616   0.183E+00    0.789E+00
DAV:  54    -0.132397762396E+04    0.24726E-01   -0.83189E-02 13584   0.150E+00    0.623E+00
DAV:  55    -0.132399186308E+04   -0.14239E-01   -0.70822E-02 13632   0.149E+00    0.631E+00
DAV:  56    -0.132403021655E+04   -0.38353E-01   -0.10829E-01 13696   0.184E+00    0.722E+00
DAV:  57    -0.132393077669E+04    0.99440E-01   -0.67702E-02 13592   0.151E+00    0.581E+00
DAV:  58    -0.132390118785E+04    0.29589E-01   -0.40094E-02 13616   0.114E+00    0.474E+00
DAV:  59    -0.132391541537E+04   -0.14228E-01   -0.40093E-02 13568   0.111E+00    0.403E+00
DAV:  60    -0.132394017152E+04   -0.24756E-01   -0.31028E-02 13592   0.103E+00    0.378E+00
DAV:  61    -0.132396275941E+04   -0.22588E-01   -0.26039E-02 13664   0.108E+00    0.566E+00
DAV:  62    -0.132394813647E+04    0.14623E-01   -0.22360E-02 13632   0.901E-01    0.476E+00
DAV:  63    -0.132392934511E+04    0.18791E-01   -0.19421E-02 13616   0.833E-01    0.352E+00
DAV:  64    -0.132391171833E+04    0.17627E-01   -0.13637E-02 13616   0.722E-01    0.213E+00
DAV:  65    -0.132392906137E+04   -0.17343E-01   -0.13199E-02 13664   0.694E-01    0.289E+00
DAV:  66    -0.132394965973E+04   -0.20598E-01   -0.27914E-02 13712   0.956E-01    0.431E+00
DAV:  67    -0.132391543607E+04    0.34224E-01   -0.26787E-02 13672   0.875E-01    0.254E+00
DAV:  68    -0.132391635471E+04   -0.91865E-03   -0.98797E-03 13632   0.583E-01    0.165E+00
DAV:  69    -0.132391634230E+04    0.12408E-04   -0.61526E-03 13680   0.447E-01    0.148E+00
DAV:  70    -0.132391797042E+04   -0.16281E-02   -0.45600E-03 13592   0.397E-01    0.119E+00
DAV:  71    -0.132392240790E+04   -0.44375E-02   -0.57443E-03 13680   0.459E-01    0.185E+00
DAV:  72    -0.132391608193E+04    0.63260E-02   -0.57164E-03 13600   0.400E-01    0.126E+00
DAV:  73    -0.132391575931E+04    0.32261E-03   -0.22435E-03 13736   0.265E-01    0.694E-01
DAV:  74    -0.132391675076E+04   -0.99144E-03   -0.11651E-03 13760   0.202E-01    0.766E-01
DAV:  75    -0.132391767598E+04   -0.92523E-03   -0.11708E-03 13664   0.195E-01    0.796E-01
DAV:  76    -0.132392056898E+04   -0.28930E-02   -0.22184E-03 14032   0.281E-01    0.134E+00
DAV:  77    -0.132391707877E+04    0.34902E-02   -0.19517E-03 13840   0.257E-01    0.564E-01
DAV:  78    -0.132391722307E+04   -0.14430E-03   -0.35173E-04 13712   0.105E-01    0.356E-01
DAV:  79    -0.132391760218E+04   -0.37912E-03   -0.25322E-04 13752   0.866E-02    0.359E-01
DAV:  80    -0.132391810581E+04   -0.50363E-03   -0.21420E-04 13672   0.873E-02    0.298E-01
DAV:  81    -0.132391924393E+04   -0.11381E-02   -0.50734E-04 14096   0.132E-01    0.761E-01
DAV:  82    -0.132391843487E+04    0.80906E-03   -0.44814E-04 13776   0.119E-01    0.399E-01
DAV:  83    -0.132391837479E+04    0.60082E-04   -0.97506E-05 13744   0.548E-02    0.229E-01
DAV:  84    -0.132391860584E+04   -0.23105E-03   -0.77483E-05 13512   0.483E-02    0.172E-01
DAV:  85    -0.132391886854E+04   -0.26270E-03   -0.73651E-05 13344   0.483E-02    0.188E-01
DAV:  86    -0.132391943967E+04   -0.57113E-03   -0.23868E-04 14344   0.890E-02    0.442E-01
DAV:  87    -0.132391923464E+04    0.20503E-03   -0.21893E-04 13888   0.847E-02    0.164E-01
DAV:  88    -0.132391936376E+04   -0.12912E-03   -0.53161E-05 13560   0.364E-02    0.102E-01
DAV:  89    -0.132391947896E+04   -0.11520E-03   -0.27592E-05 10464   0.272E-02    0.900E-02
DAV:  90    -0.132391975990E+04   -0.28094E-03   -0.32109E-05 11288   0.278E-02    0.974E-02
DAV:  91    -0.132391999329E+04   -0.23339E-03   -0.51135E-05 13088   0.402E-02    0.194E-01
DAV:  92    -0.132392000612E+04   -0.12833E-04   -0.41986E-05 11576   0.376E-02    0.838E-02
DAV:  93    -0.132392006986E+04   -0.63734E-04   -0.12064E-05  8096   0.169E-02    0.763E-02
DAV:  94    -0.132392014813E+04   -0.78273E-04   -0.12241E-05  8160   0.174E-02    0.865E-02
DAV:  95    -0.132392037250E+04   -0.22437E-03   -0.26324E-05 11449   0.216E-02    0.795E-02
DAV:  96    -0.132392024412E+04    0.12838E-03   -0.28675E-05  8546   0.295E-02    0.147E-01
DAV:  97    -0.132392030416E+04   -0.60045E-04   -0.26089E-05  7528   0.279E-02    0.819E-02
DAV:  98    -0.132392045278E+04   -0.14861E-03   -0.15171E-05  8114   0.194E-02    0.727E-02
DAV:  99    -0.132392058079E+04   -0.12801E-03   -0.12924E-05  9289   0.159E-02    0.569E-02
DAV: 100    -0.132392063362E+04   -0.52831E-04   -0.81806E-06  7688   0.140E-02    0.634E-02
DAV: 101    -0.132392060606E+04    0.27558E-04   -0.15700E-05  7297   0.240E-02    0.110E-01
DAV: 102    -0.132392069724E+04   -0.91177E-04   -0.20865E-05  8492   0.224E-02    0.453E-02
DAV: 103    -0.132392074242E+04   -0.45178E-04   -0.13629E-05 10584   0.127E-02    0.333E-02
DAV: 104    -0.132392075225E+04   -0.98345E-05   -0.45710E-06  7337   0.906E-03    0.336E-02
DAV: 105    -0.132392076603E+04   -0.13778E-04   -0.31874E-06  6440   0.823E-03    0.324E-02
DAV: 106    -0.132392076932E+04   -0.32871E-05   -0.34180E-06  6867   0.103E-02
   1 F= -.14212173E+04 E0= -.14204569E+04  d E =-.152069E+01
