LAMMPS (24 Mar 2022)
OMP_NUM_THREADS environment is not set. Defaulting to 1 thread. (src/comm.cpp:98)
  using 1 OpenMP thread(s) per MPI task
Reading data file ...
  triclinic box = (0 0 0) to (10.5415 9.1292069 28.5415) with tilt (-5.27075 0 0)
  1 by 1 by 1 MPI processor grid
  reading atoms ...
  125 atoms
  read_data CPU = 0.001 seconds
WARNING: Using 'neigh_modify every 1 delay 0 check yes' setting during minimization (src/min.cpp:187)
Neighbor list info ...
  update every 1 steps, delay 0 steps, check yes
  max neighbors/atom: 2000, page size: 100000
  master list distance cutoff = 8.28721
  ghost atom cutoff = 8.28721
  binsize = 4.143605, bins = 4 3 7
  1 neighbor lists, perpetual/occasional/extra = 1 0 0
  (1) pair eam/alloy, perpetual
      attributes: half, newton on
      pair build: half/bin/newton/tri
      stencil: half/bin/3d/tri
      bin: standard
Setting up cg style minimization ...
  Unit style    : metal
  Current step  : 0
Per MPI rank memory allocation (min/avg/max) = 4.484 | 4.484 | 4.484 Mbytes
   Step          Temp          E_pair         E_mol          TotEng         Press     
         0   0             -410.4657       0             -410.4657       23434.083    
Loop time of 2.163e-06 on 1 procs for 0 steps with 125 atoms

138.7% CPU use with 1 MPI tasks x 1 OpenMP threads

Minimization stats:
  Stopping criterion = max iterations
  Energy initial, next-to-last, final = 
     -410.465704102207                  0  -410.465704102207
  Force two-norm initial, final = 18.98303 18.98303
  Force max component initial, final = 3.0767517 3.0767517
  Final line search alpha, max atom move = 0 0
  Iterations, force evaluations = 0 0

MPI task timing breakdown:
Section |  min time  |  avg time  |  max time  |%varavg| %total
---------------------------------------------------------------
Pair    | 0          | 0          | 0          |   0.0 |  0.00
Neigh   | 0          | 0          | 0          |   0.0 |  0.00
Comm    | 0          | 0          | 0          |   0.0 |  0.00
Output  | 0          | 0          | 0          |   0.0 |  0.00
Modify  | 0          | 0          | 0          |   0.0 |  0.00
Other   |            | 2.163e-06  |            |       |100.00

Nlocal:            125 ave         125 max         125 min
Histogram: 1 0 0 0 0 0 0 0 0 0
Nghost:           1591 ave        1591 max        1591 min
Histogram: 1 0 0 0 0 0 0 0 0 0
Neighs:           8405 ave        8405 max        8405 min
Histogram: 1 0 0 0 0 0 0 0 0 0

Total # of neighbors = 8405
Ave neighs/atom = 67.24
Neighbor list builds = 0
Dangerous builds = 0
Setting up Verlet run ...
  Unit style    : metal
  Current step  : 0
  Time step     : 0.01
Per MPI rank memory allocation (min/avg/max) = 4.364 | 4.364 | 4.364 Mbytes
   Step          Temp          E_pair         E_mol          TotEng         Press     
         0   300           -410.4657       0             -405.65723      25303.966    
       100   2577.964      -447.38564      0             -406.06537     -27808.111    
       200   2610.2185     -447.91994      0             -406.08269     -7640.5971    
       300   2979.8161     -454.0374       0             -406.27614      814.05157    
       400   2796.387      -451.00036      0             -406.17915      4633.6972    
       500   2851.3823     -451.83342      0             -406.13072      2576.3345    
       600   2793.2449     -450.85481      0             -406.08396     -624.55431    
       700   2657.5061     -448.76716      0             -406.17196      939.67813    
       800   2904.3775     -452.87706      0             -406.32495      3686.3863    
       900   2618.4173     -448.10949      0             -406.14082      3192.1989    
      1000   2773.6261     -450.6154       0             -406.159       -9857.9402    
      1100   2496.4374     -446.05205      0             -406.0385      -26846.785    
      1200   2420.3856     -444.84912      0             -406.05455     -16802.955    
      1300   2764.8708     -450.51859      0             -406.20253     -9932.2438    
      1400   2568.3455     -447.10789      0             -405.94179     -12616.395    
      1500   2643.003      -448.41256      0             -406.04982     -12707.102    
      1600   2809.1161     -451.17295      0             -406.14771     -3057.3922    
      1700   2911.9537     -452.85795      0             -406.1844      -8224.0655    
      1800   2516.8202     -446.43582      0             -406.09557     -16730.734    
      1900   2572.1003     -447.25382      0             -406.02753     -16158.85     
      2000   3109.7826     -456.10093      0             -406.25653     -2039.644     
      2100   2802.6135     -451.17976      0             -406.25875      2746.3565    
      2200   2849.4749     -451.94367      0             -406.27155      11191.802    
      2300   2676.3253     -449.13888      0             -406.24205     -5360.0985    
      2400   2566.61       -447.32701      0             -406.18872     -7934.3552    
      2500   2498.199      -446.16532      0             -406.12355      4659.2505    
      2600   2776.3097     -450.72478      0             -406.22537     -14935.359    
      2700   2690.0736     -449.23376      0             -406.11656     -10136.356    
      2800   2834.8155     -451.71866      0             -406.28151      9593.2043    
      2900   2553.7868     -446.92454      0             -405.99178     -12381.539    
      3000   2562.4225     -447.21564      0             -406.14447     -34453.379    
      3100   2589.8569     -447.54926      0             -406.03837      7959.4419    
      3200   2584.6162     -447.51919      0             -406.09229     -4813.0675    
      3300   2634.071      -448.35948      0             -406.13991      3841.4907    
      3400   2572.6019     -447.33395      0             -406.09963     -1096.172     
      3500   2512.2236     -446.31317      0             -406.04661     -1720.1958    
      3600   2513.0751     -446.39546      0             -406.11525     -14877.526    
      3700   2593.5501     -447.66789      0             -406.0978      -24083.184    
      3800   2591.8498     -447.5762       0             -406.03336     -1603.6964    
      3900   2711.6838     -449.6839       0             -406.22033     -13273.13     
      4000   2637.8007     -448.46403      0             -406.18468     -29170.589    
      4100   2742.5949     -450.2469       0             -406.28788     -5949.3385    
      4200   2956.3174     -453.69042      0             -406.30581     -7535.8363    
      4300   2571.3068     -447.31657      0             -406.103       -1658.8154    
      4400   2733.8223     -450.02366      0             -406.20525      3035.4286    
      4500   2756.2845     -450.25309      0             -406.07466     -1836.1341    
      4600   2598.3408     -447.87368      0             -406.2268      -3202.7665    
      4700   2684.9855     -449.17752      0             -406.14188      1251.5608    
      4800   2534.0546     -446.84619      0             -406.22971     -2174.0393    
      4900   2602.9613     -447.82302      0             -406.10208     -3120.636     
      5000   2593.0124     -447.54187      0             -405.9804       4156.1804    
      5100   2862.9998     -452.17699      0             -406.28809      16128.332    
      5200   2710.7755     -449.5013       0             -406.0523       4211.084     
      5300   2617.6038     -448.13719      0             -406.18156     -6289.0511    
      5400   2805.5504     -451.16028      0             -406.19219     -5826.9972    
      5500   2651.9264     -448.66297      0             -406.15721     -5524.8025    
      5600   2923.0649     -453.24442      0             -406.39279     -5505.4416    
      5700   2905.4294     -452.75594      0             -406.18697      4514.1703    
      5800   2745.9797     -450.11266      0             -406.09939      15186.138    
      5900   2959.1697     -453.70985      0             -406.27951     -12091.36     
      6000   2702.3216     -449.4438       0             -406.13029     -5132.5262    
      6100   2604.9684     -447.81975      0             -406.06665     -19521.071    
      6200   2693.6703     -449.38832      0             -406.21348     -14055.776    
      6300   2653.7606     -448.79537      0             -406.26021     -17429.929    
      6400   2785.7026     -450.85184      0             -406.20188     -9743.9771    
      6500   2936.699      -453.47202      0             -406.40185     -49.538131    
      6600   2920.9491     -453.17223      0             -406.35451      817.63661    
      6700   2545.8245     -446.88158      0             -406.07645     -1365.583     
      6800   2854.2935     -452.04573      0             -406.29638      8114.0736    
      6900   2888.4363     -452.53118      0             -406.23458     -6231.8739    
      7000   2531.2503     -446.60339      0             -406.03186      1661.9193    
      7100   2706.2041     -449.54365      0             -406.16791     -9078.3797    
      7200   3134.5502     -456.74069      0             -406.49931      18466.775    
      7300   2699.2716     -449.34947      0             -406.08484      2043.2178    
      7400   2926.1217     -453.03317      0             -406.13254      5223.5795    
      7500   2994.7464     -454.16741      0             -406.16684      5241.2393    
      7600   2804.2454     -451.29393      0             -406.34676     -13526.292    
      7700   2835.4614     -451.56826      0             -406.12075     -13265.763    
      7800   2651.3893     -448.67701      0             -406.17986     -10827.729    
      7900   2617.8618     -448.05225      0             -406.09248     -8447.0885    
      8000   2666.1204     -448.95145      0             -406.21818     -4301.1237    
      8100   2781.9328     -450.65009      0             -406.06056      6873.801     
      8200   2929.0462     -453.18784      0             -406.24034     -8505.383     
      8300   2868.6204     -452.21033      0             -406.23134     -11938.808    
      8400   2790.2068     -450.92273      0             -406.20058     -12798.409    
      8500   2949.2674     -453.56262      0             -406.291       -24380.315    
      8600   2763.8538     -450.42419      0             -406.12443     -13830.328    
      8700   2805.3227     -451.07081      0             -406.10638     -16871.49     
      8800   2817.615      -451.44298      0             -406.28152     -11015.195    
      8900   2989.9496     -454.19278      0             -406.26909     -699.42943    
      9000   2684.6603     -449.20786      0             -406.17743     -8482.7097    
      9100   2737.6007     -450.07723      0             -406.19825     -7037.7714    
      9200   2735.8685     -450.03531      0             -406.1841      -7814.3455    
      9300   2554.8202     -447.03107      0             -406.08175     -11059.202    
      9400   2860.0103     -452.01607      0             -406.17508     -13697.023    
      9500   2746.6247     -450.40003      0             -406.37642     -6460.5793    
      9600   2687.2416     -449.25669      0             -406.18489     -18106.895    
      9700   2524.6765     -446.65238      0             -406.18622     -7321.2545    
      9800   2740.9841     -450.09169      0             -406.15849      6735.7626    
      9900   2769.7289     -450.58817      0             -406.19424     -4689.6795    
     10000   2994.8867     -454.29727      0             -406.29445     -2601.8962    
Loop time of 3.98627 on 1 procs for 10000 steps with 125 atoms

Performance: 2167.438 ns/day, 0.011 hours/ns, 2508.609 timesteps/s
99.8% CPU use with 1 MPI tasks x 1 OpenMP threads

MPI task timing breakdown:
Section |  min time  |  avg time  |  max time  |%varavg| %total
---------------------------------------------------------------
Pair    | 3.3015     | 3.3015     | 3.3015     |   0.0 | 82.82
Neigh   | 0.46323    | 0.46323    | 0.46323    |   0.0 | 11.62
Comm    | 0.0948     | 0.0948     | 0.0948     |   0.0 |  2.38
Output  | 0.097655   | 0.097655   | 0.097655   |   0.0 |  2.45
Modify  | 0.011599   | 0.011599   | 0.011599   |   0.0 |  0.29
Other   |            | 0.01751    |            |       |  0.44

Nlocal:            125 ave         125 max         125 min
Histogram: 1 0 0 0 0 0 0 0 0 0
Nghost:           1667 ave        1667 max        1667 min
Histogram: 1 0 0 0 0 0 0 0 0 0
Neighs:           9349 ave        9349 max        9349 min
Histogram: 1 0 0 0 0 0 0 0 0 0

Total # of neighbors = 9349
Ave neighs/atom = 74.792
Neighbor list builds = 999
Dangerous builds = 998
System init for write_restart ...
Total wall time: 0:00:04
