 508 508   0   0
  0.2012807E+02  0.1718057E-08  0.1718057E-08  0.4000000E-08  0.2000000E-15
   1.0000000000000000E-004
  CAR 
 NiAl                                    
      6.27019853    -28.35828051  301      1.84019261      1.00000000
    -28.358  0.0000E+00  0.0000E+00
    -28.243  0.0000E+00  0.0000E+00
    -28.127  0.0000E+00  0.0000E+00
    -28.012  0.0000E+00  0.0000E+00
    -27.897  0.0000E+00  0.0000E+00
    -27.781  0.0000E+00  0.0000E+00
    -27.666  0.0000E+00  0.0000E+00
    -27.550  0.0000E+00  0.0000E+00
    -27.435  0.0000E+00  0.0000E+00
    -27.319  0.0000E+00  0.0000E+00
    -27.204  0.0000E+00  0.0000E+00
    -27.089  0.0000E+00  0.0000E+00
    -26.973  0.4973E-08  0.5740E-09
    -26.858  0.2237E-02  0.2583E-03
    -26.742  0.3908E+00  0.4537E-01
    -26.627  0.1214E+01  0.1855E+00
    -26.511  0.1257E+00  0.2000E+00
    -26.396  0.8162E-04  0.2000E+00
    -26.281  0.2408E+00  0.2278E+00
    -26.165  0.1895E+01  0.4466E+00
    -26.050  0.9005E+00  0.5505E+00
    -25.934  0.3593E+00  0.5920E+00
    -25.819  0.1684E+01  0.7863E+00
    -25.703  0.1842E+01  0.9990E+00
    -25.588  0.1350E+00  0.1015E+01
    -25.473  0.1003E+01  0.1130E+01
    -25.357  0.1398E+01  0.1292E+01
    -25.242  0.2271E+01  0.1554E+01
    -25.126  0.2409E+01  0.1832E+01
    -25.011  0.5055E+00  0.1890E+01
    -24.895  0.1586E+01  0.2073E+01
    -24.780  0.2352E+01  0.2345E+01
    -24.665  0.1733E+01  0.2545E+01
    -24.549  0.2828E+01  0.2871E+01
    -24.434  0.2235E+01  0.3129E+01
    -24.318  0.1343E+01  0.3284E+01
    -24.203  0.4466E+01  0.3800E+01
    -24.087  0.3039E+01  0.4151E+01
    -23.972  0.2868E+01  0.4482E+01
    -23.857  0.2385E+01  0.4757E+01
    -23.741  0.3508E+01  0.5162E+01
    -23.626  0.3299E+00  0.5200E+01
    -23.510  0.1111E-03  0.5200E+01
    -23.395  0.3096E-02  0.5200E+01
    -23.279  0.1112E+01  0.5329E+01
    -23.164  0.1835E+01  0.5541E+01
    -23.049  0.8149E+00  0.5635E+01
    -22.933  0.1318E+01  0.5787E+01
    -22.818  0.7638E+00  0.5875E+01
    -22.702  0.1080E+01  0.6000E+01
    -22.587  0.2914E-02  0.6000E+01
    -22.471  0.5430E-09  0.6000E+01
    -22.356  0.0000E+00  0.6000E+01
    -22.241  0.0000E+00  0.6000E+01
    -22.125  0.0000E+00  0.6000E+01
    -22.010  0.0000E+00  0.6000E+01
    -21.894  0.0000E+00  0.6000E+01
    -21.779  0.0000E+00  0.6000E+01
    -21.663  0.0000E+00  0.6000E+01
    -21.548  0.0000E+00  0.6000E+01
    -21.433  0.0000E+00  0.6000E+01
    -21.317  0.0000E+00  0.6000E+01
    -21.202  0.0000E+00  0.6000E+01
    -21.086  0.0000E+00  0.6000E+01
    -20.971  0.0000E+00  0.6000E+01
    -20.855  0.0000E+00  0.6000E+01
    -20.740  0.0000E+00  0.6000E+01
    -20.625  0.0000E+00  0.6000E+01
    -20.509  0.0000E+00  0.6000E+01
    -20.394  0.0000E+00  0.6000E+01
    -20.278  0.0000E+00  0.6000E+01
    -20.163  0.0000E+00  0.6000E+01
    -20.047  0.8311E-10  0.6000E+01
    -19.932  0.1144E-02  0.6000E+01
    -19.817  0.9000E+00  0.6104E+01
    -19.701  0.8308E+00  0.6200E+01
    -19.586  0.8013E-03  0.6200E+01
    -19.470  0.4225E-10  0.6200E+01
    -19.355  0.1065E-04  0.6200E+01
    -19.239  0.3554E+00  0.6241E+01
    -19.124  0.3029E+01  0.6591E+01
    -19.009  0.8116E-01  0.6600E+01
    -18.893  0.2727E-06  0.6600E+01
    -18.778  0.0000E+00  0.6600E+01
    -18.662  0.0000E+00  0.6600E+01
    -18.547  0.0000E+00  0.6600E+01
    -18.431  0.0000E+00  0.6600E+01
    -18.316  0.0000E+00  0.6600E+01
    -18.201  0.0000E+00  0.6600E+01
    -18.085  0.0000E+00  0.6600E+01
    -17.970  0.0000E+00  0.6600E+01
    -17.854  0.0000E+00  0.6600E+01
    -17.739  0.0000E+00  0.6600E+01
    -17.623  0.0000E+00  0.6600E+01
    -17.508  0.0000E+00  0.6600E+01
    -17.393  0.0000E+00  0.6600E+01
    -17.277  0.0000E+00  0.6600E+01
    -17.162  0.0000E+00  0.6600E+01
    -17.046  0.0000E+00  0.6600E+01
    -16.931  0.0000E+00  0.6600E+01
    -16.815  0.2825E-15  0.6600E+01
    -16.700  0.2811E-06  0.6600E+01
    -16.585  0.1090E-01  0.6601E+01
    -16.469  0.3998E+00  0.6647E+01
    -16.354  0.6559E+00  0.6723E+01
    -16.238  0.6633E+00  0.6800E+01
    -16.123  0.8927E-01  0.6810E+01
    -16.007  0.8274E+00  0.6905E+01
    -15.892  0.1068E+00  0.6918E+01
    -15.777  0.5880E+00  0.6986E+01
    -15.661  0.5649E+00  0.7051E+01
    -15.546  0.3987E+00  0.7097E+01
    -15.430  0.1047E+01  0.7218E+01
    -15.315  0.3451E+01  0.7616E+01
    -15.199  0.1373E+01  0.7775E+01
    -15.084  0.1149E+01  0.7907E+01
    -14.969  0.9738E+00  0.8020E+01
    -14.853  0.1909E+01  0.8240E+01
    -14.738  0.7941E+00  0.8332E+01
    -14.622  0.1983E+01  0.8561E+01
    -14.507  0.1335E+01  0.8715E+01
    -14.391  0.1654E+01  0.8906E+01
    -14.276  0.1312E+01  0.9057E+01
    -14.161  0.3707E+00  0.9100E+01
    -14.045  0.3831E+00  0.9144E+01
    -13.930  0.2830E+01  0.9471E+01
    -13.814  0.1072E+01  0.9595E+01
    -13.699  0.9764E+00  0.9707E+01
    -13.583  0.2247E+01  0.9967E+01
    -13.468  0.7785E+00  0.1006E+02
    -13.353  0.1335E+01  0.1021E+02
    -13.237  0.2540E+01  0.1050E+02
    -13.122  0.1349E+01  0.1066E+02
    -13.006  0.1596E+01  0.1084E+02
    -12.891  0.1927E+01  0.1107E+02
    -12.775  0.1086E+01  0.1119E+02
    -12.660  0.1478E+01  0.1136E+02
    -12.545  0.1530E+01  0.1154E+02
    -12.429  0.1701E+01  0.1173E+02
    -12.314  0.1184E+01  0.1187E+02
    -12.198  0.6675E+00  0.1195E+02
    -12.083  0.4172E+00  0.1200E+02
    -11.967  0.1181E+01  0.1213E+02
    -11.852  0.2426E+01  0.1241E+02
    -11.737  0.1668E+01  0.1261E+02
    -11.621  0.5114E+00  0.1266E+02
    -11.506  0.8467E+00  0.1276E+02
    -11.390  0.3256E+00  0.1280E+02
    -11.275  0.1189E-03  0.1280E+02
    -11.159  0.2267E-11  0.1280E+02
    -11.044  0.0000E+00  0.1280E+02
    -10.929  0.0000E+00  0.1280E+02
    -10.813  0.0000E+00  0.1280E+02
    -10.698  0.0000E+00  0.1280E+02
    -10.582  0.0000E+00  0.1280E+02
    -10.467  0.0000E+00  0.1280E+02
    -10.351  0.0000E+00  0.1280E+02
    -10.236  0.0000E+00  0.1280E+02
    -10.121  0.0000E+00  0.1280E+02
    -10.005  0.0000E+00  0.1280E+02
     -9.890  0.0000E+00  0.1280E+02
     -9.774  0.1146E-07  0.1280E+02
     -9.659  0.2943E-02  0.1280E+02
     -9.543  0.9647E-01  0.1281E+02
     -9.428  0.4004E+00  0.1286E+02
     -9.313  0.2753E+00  0.1289E+02
     -9.197  0.1392E+01  0.1305E+02
     -9.082  0.2448E+01  0.1333E+02
     -8.966  0.3127E+01  0.1369E+02
     -8.851  0.3678E+01  0.1412E+02
     -8.735  0.2158E+01  0.1437E+02
     -8.620  0.3327E+01  0.1475E+02
     -8.505  0.2234E+01  0.1501E+02
     -8.389  0.2876E+01  0.1534E+02
     -8.274  0.4712E+01  0.1589E+02
     -8.158  0.4031E+01  0.1635E+02
     -8.043  0.3874E+01  0.1680E+02
     -7.927  0.3897E+01  0.1725E+02
     -7.812  0.4530E+01  0.1777E+02
     -7.697  0.2843E+01  0.1810E+02
     -7.581  0.3270E+01  0.1848E+02
     -7.466  0.2720E+01  0.1879E+02
     -7.350  0.3562E+01  0.1920E+02
     -7.235  0.3279E+01  0.1958E+02
     -7.119  0.3580E+01  0.1999E+02
     -7.004  0.2590E+01  0.2029E+02
     -6.889  0.4341E+01  0.2079E+02
     -6.773  0.2626E+01  0.2110E+02
     -6.658  0.2176E+01  0.2135E+02
     -6.542  0.2601E+01  0.2165E+02
     -6.427  0.2698E+01  0.2196E+02
     -6.311  0.4400E+01  0.2247E+02
     -6.196  0.3755E+01  0.2290E+02
     -6.081  0.4947E+01  0.2347E+02
     -5.965  0.4567E+01  0.2400E+02
     -5.850  0.3813E+01  0.2444E+02
     -5.734  0.4779E+01  0.2499E+02
     -5.619  0.2068E+01  0.2523E+02
     -5.503  0.3047E+01  0.2558E+02
     -5.388  0.4026E+01  0.2605E+02
     -5.273  0.4419E+01  0.2656E+02
     -5.157  0.4423E+01  0.2707E+02
     -5.042  0.6002E+01  0.2776E+02
     -4.926  0.6395E+01  0.2850E+02
     -4.811  0.4558E+01  0.2902E+02
     -4.695  0.5941E+01  0.2971E+02
     -4.580  0.4674E+01  0.3025E+02
     -4.465  0.6304E+01  0.3098E+02
     -4.349  0.4524E+01  0.3150E+02
     -4.234  0.4873E+01  0.3206E+02
     -4.118  0.4725E+01  0.3261E+02
     -4.003  0.5739E+01  0.3327E+02
     -3.887  0.3714E+01  0.3370E+02
     -3.772  0.3805E+01  0.3414E+02
     -3.657  0.4063E+01  0.3461E+02
     -3.541  0.4430E+01  0.3512E+02
     -3.426  0.3343E+01  0.3550E+02
     -3.310  0.2775E+01  0.3582E+02
     -3.195  0.3722E+01  0.3625E+02
     -3.079  0.5638E+01  0.3690E+02
     -2.964  0.3915E+01  0.3736E+02
     -2.849  0.2816E+01  0.3768E+02
     -2.733  0.3792E+01  0.3812E+02
     -2.618  0.5293E+01  0.3873E+02
     -2.502  0.4509E+01  0.3925E+02
     -2.387  0.3823E+01  0.3969E+02
     -2.271  0.3710E+01  0.4012E+02
     -2.156  0.4880E+01  0.4068E+02
     -2.041  0.4878E+01  0.4125E+02
     -1.925  0.4384E+01  0.4175E+02
     -1.810  0.3801E+01  0.4219E+02
     -1.694  0.4313E+01  0.4269E+02
     -1.579  0.5568E+01  0.4333E+02
     -1.463  0.4876E+01  0.4389E+02
     -1.348  0.3920E+01  0.4435E+02
     -1.233  0.3281E+01  0.4472E+02
     -1.117  0.4233E+01  0.4521E+02
     -1.002  0.4368E+01  0.4572E+02
     -0.886  0.4437E+01  0.4623E+02
     -0.771  0.4080E+01  0.4670E+02
     -0.655  0.4368E+01  0.4720E+02
     -0.540  0.3975E+01  0.4766E+02
     -0.425  0.4526E+01  0.4819E+02
     -0.309  0.4024E+01  0.4865E+02
     -0.194  0.3958E+01  0.4911E+02
     -0.078  0.2906E+01  0.4944E+02
      0.037  0.2613E+01  0.4974E+02
      0.153  0.3711E+01  0.5017E+02
      0.268  0.5375E+01  0.5079E+02
      0.383  0.3453E+01  0.5119E+02
      0.499  0.5070E+01  0.5178E+02
      0.614  0.3495E+01  0.5218E+02
      0.730  0.4652E+01  0.5272E+02
      0.845  0.3857E+01  0.5316E+02
      0.960  0.4087E+01  0.5363E+02
      1.076  0.4010E+01  0.5410E+02
      1.191  0.4113E+01  0.5457E+02
      1.307  0.3712E+01  0.5500E+02
      1.422  0.3984E+01  0.5546E+02
      1.538  0.4018E+01  0.5592E+02
      1.653  0.3948E+01  0.5638E+02
      1.768  0.3908E+01  0.5683E+02
      1.884  0.6068E+01  0.5753E+02
      1.999  0.4268E+01  0.5802E+02
      2.115  0.5503E+01  0.5866E+02
      2.230  0.3320E+01  0.5904E+02
      2.346  0.3413E+01  0.5944E+02
      2.461  0.5169E+01  0.6003E+02
      2.576  0.5300E+01  0.6064E+02
      2.692  0.5713E+01  0.6130E+02
      2.807  0.4843E+01  0.6186E+02
      2.923  0.4312E+01  0.6236E+02
      3.038  0.6530E+01  0.6311E+02
      3.154  0.3474E+01  0.6352E+02
      3.269  0.5340E+01  0.6413E+02
      3.384  0.5346E+01  0.6475E+02
      3.500  0.6837E+01  0.6554E+02
      3.615  0.5940E+01  0.6622E+02
      3.731  0.5305E+01  0.6684E+02
      3.846  0.4509E+01  0.6736E+02
      3.962  0.3921E+01  0.6781E+02
      4.077  0.3027E+01  0.6816E+02
      4.192  0.3783E+01  0.6860E+02
      4.308  0.4263E+01  0.6909E+02
      4.423  0.3378E+01  0.6948E+02
      4.539  0.1792E+01  0.6968E+02
      4.654  0.2059E+01  0.6992E+02
      4.770  0.1099E+01  0.7005E+02
      4.885  0.8262E-02  0.7005E+02
      5.000  0.1533E-07  0.7005E+02
      5.116  0.0000E+00  0.7005E+02
      5.231  0.0000E+00  0.7005E+02
      5.347  0.0000E+00  0.7005E+02
      5.462  0.0000E+00  0.7005E+02
      5.578  0.0000E+00  0.7005E+02
      5.693  0.0000E+00  0.7005E+02
      5.808  0.0000E+00  0.7005E+02
      5.924  0.0000E+00  0.7005E+02
      6.039  0.0000E+00  0.7005E+02
      6.155  0.0000E+00  0.7005E+02
      6.270  0.0000E+00  0.7005E+02
