  508  508   40    1
  0.2012807E+02  0.1718057E-08  0.1718057E-08  0.4000000E-08  0.2000000E-15
   1.0000000000000000E-004
  CAR 
 NiAl                                    
   2292      2   1401
 
  0.1262379E-14  0.1262379E-14  0.1262379E-14  0.2500000E+00
    1      -26.784259   1.000000
    2      -26.666107   1.000000
    3      -26.666106   1.000000
    4      -26.666097   1.000000
    5      -26.272042   1.000000
    6      -26.272012   1.000000
    7      -26.272011   1.000000
    8      -26.243550   1.000000
    9      -26.135595   1.000000
   10      -26.135573   1.000000
   11      -26.135571   1.000000
   12      -25.841519   1.000000
   13      -25.841519   1.000000
   14      -25.841502   1.000000
   15      -25.827416   1.000000
   16      -25.827412   1.000000
   17      -25.827392   1.000000
   18      -25.803890   1.000000
   19      -25.717952   1.000000
   20      -25.717894   1.000000
   21      -25.717839   1.000000
   22      -25.507202   1.000000
   23      -25.507202   1.000000
   24      -25.507168   1.000000
   25      -25.391148   1.000000
   26      -25.391083   1.000000
   27      -25.386875   1.000000
   28      -25.386844   1.000000
   29      -25.386843   1.000000
   30      -25.265294   1.000000
   31      -25.265273   1.000000
   32      -25.265273   1.000000
   33      -25.126528   1.000000
   34      -25.126496   1.000000
   35      -24.996982   1.000000
   36      -24.996949   1.000000
   37      -24.996948   1.000000
   38      -24.983348   1.000000
   39      -24.983334   1.000000
   40      -24.983334   1.000000
   41      -24.879269   1.000000
   42      -24.879269   1.000000
   43      -24.879228   1.000000
   44      -24.857482   1.000000
   45      -24.857463   1.000000
   46      -24.857463   1.000000
   47      -24.835223   1.000000
   48      -24.835222   1.000000
   49      -24.835162   1.000000
   50      -24.829675   1.000000
   51      -24.829670   1.000000
   52      -24.781820   1.000000
   53      -24.626258   1.000000
   54      -24.566872   1.000000
   55      -24.566870   1.000000
   56      -24.566851   1.000000
   57      -24.533105   1.000000
   58      -24.533058   1.000000
   59      -24.447142   1.000000
   60      -24.447099   1.000000
   61      -24.447098   1.000000
   62      -24.419121   1.000000
   63      -24.419120   1.000000
   64      -24.419115   1.000000
   65      -24.341473   1.000000
   66      -24.341460   1.000000
   67      -24.341458   1.000000
   68      -24.274284   1.000000
   69      -24.274283   1.000000
   70      -24.274246   1.000000
   71      -24.260475   1.000000
   72      -24.260473   1.000000
   73      -24.260464   1.000000
   74      -24.243775   1.000000
   75      -24.243745   1.000000
   76      -24.203363   1.000000
   77      -24.189584   1.000000
   78      -24.176860   1.000000
   79      -24.176826   1.000000
   80      -24.176826   1.000000
   81      -24.116710   1.000000
   82      -24.082935   1.000000
   83      -24.082890   1.000000
   84      -24.082890   1.000000
   85      -24.027204   1.000000
   86      -24.027204   1.000000
   87      -24.027159   1.000000
   88      -23.996179   1.000000
   89      -23.996151   1.000000
   90      -23.996150   1.000000
   91      -23.981740   1.000000
   92      -23.981676   1.000000
   93      -23.882630   1.000000
   94      -23.882619   1.000000
   95      -23.882610   1.000000
   96      -23.822606   1.000000
   97      -23.822605   1.000000
   98      -23.822569   1.000000
   99      -23.815026   1.000000
  100      -23.815022   1.000000
  101      -23.786366   1.000000
  102      -23.782584   1.000000
  103      -23.782541   1.000000
  104      -23.782540   1.000000
  105      -23.299970   1.000000
  106      -23.299965   1.000000
  107      -23.299918   1.000000
  108      -23.251415   1.000000
  109      -23.213798   1.000000
  110      -23.213775   1.000000
  111      -23.213774   1.000000
  112      -23.107933   1.000000
  113      -23.107894   1.000000
  114      -22.973227   1.000000
  115      -22.973218   1.000000
  116      -22.973210   1.000000
  117      -22.812361   1.000000
  118      -22.812356   1.000000
  119      -22.812338   1.000000
  120      -22.798839   1.000000
  121      -19.821929   1.000000
  122      -19.817253   1.000000
  123      -19.817206   1.000000
  124      -19.817171   1.000000
  125      -19.198896   1.000000
  126      -19.198875   1.000000
  127      -19.198853   1.000000
  128      -19.192257   1.000000
  129      -19.192236   1.000000
  130      -19.192209   1.000000
  131      -19.191623   1.000000
  132      -19.191619   1.000000
  133      -16.538914   1.000000
  134      -16.330449   1.000000
  135      -16.330449   1.000000
  136      -16.330427   1.000000
  137      -16.094622   1.000000
  138      -16.094588   1.000000
  139      -16.094587   1.000000
  140      -15.557535   1.000000
  141      -15.557531   1.000000
  142      -15.557529   1.000000
  143      -15.552236   1.000000
  144      -15.415185   1.000000
  145      -15.415183   1.000000
  146      -15.415172   1.000000
  147      -15.373628   1.000000
  148      -15.373575   1.000000
  149      -15.373575   1.000000
  150      -15.325963   1.000000
  151      -15.325844   1.000000
  152      -15.325502   1.000000
  153      -15.325501   1.000000
  154      -15.325401   1.000000
  155      -15.308562   1.000000
  156      -15.308536   1.000000
  157      -15.259565   1.000000
  158      -15.227548   1.000000
  159      -15.227528   1.000000
  160      -14.953128   1.000000
  161      -14.953108   1.000000
  162      -14.953107   1.000000
  163      -14.782126   1.000000
  164      -14.782124   1.000000
  165      -14.782123   1.000000
  166      -14.748677   1.000000
  167      -14.747355   1.000000
  168      -14.747353   1.000000
  169      -14.747338   1.000000
  170      -14.641275   1.000000
  171      -14.641273   1.000000
  172      -14.641256   1.000000
  173      -14.504028   1.000000
  174      -14.503998   1.000000
  175      -14.503998   1.000000
  176      -14.435729   1.000000
  177      -14.435709   1.000000
  178      -14.435706   1.000000
  179      -14.426264   1.000000
  180      -14.332959   1.000000
  181      -14.332923   1.000000
  182      -14.332922   1.000000
  183      -14.038060   1.000000
  184      -14.038060   1.000000
  185      -14.038045   1.000000
  186      -13.996923   1.000000
  187      -13.969190   1.000000
  188      -13.969165   1.000000
  189      -13.969161   1.000000
  190      -13.861237   1.000000
  191      -13.861189   1.000000
  192      -13.834435   1.000000
  193      -13.708980   1.000000
  194      -13.708956   1.000000
  195      -13.667982   1.000000
  196      -13.667982   1.000000
  197      -13.667950   1.000000
  198      -13.663237   1.000000
  199      -13.663221   1.000000
  200      -13.644998   1.000000
  201      -13.644996   1.000000
  202      -13.644984   1.000000
  203      -13.481343   1.000000
  204      -13.270920   1.000000
  205      -13.270917   1.000000
  206      -13.270912   1.000000
  207      -13.266048   1.000000
  208      -13.266044   1.000000
  209      -13.266004   1.000000
  210      -13.113530   1.000000
  211      -13.113530   1.000000
  212      -13.113528   1.000000
  213      -13.101997   1.000000
  214      -13.101974   1.000000
  215      -13.013874   1.000000
  216      -13.013871   1.000000
  217      -13.013870   1.000000
  218      -13.010099   1.000000
  219      -13.010085   1.000000
  220      -13.010079   1.000000
  221      -12.943886   1.000000
  222      -12.943883   1.000000
  223      -12.943883   1.000000
  224      -12.769250   1.000000
  225      -12.769236   1.000000
  226      -12.769236   1.000000
  227      -12.671630   1.000000
  228      -12.671588   1.000000
  229      -12.671587   1.000000
  230      -12.587619   1.000000
  231      -12.585485   1.000000
  232      -12.585464   1.000000
  233      -12.508085   1.000000
  234      -12.508074   1.000000
  235      -12.508073   1.000000
  236      -12.295377   1.000000
  237      -12.295351   1.000000
  238      -12.295350   1.000000
  239      -12.119132   1.000000
  240      -12.119129   1.000000
  241      -12.014319   1.000000
  242      -11.944797   1.000000
  243      -11.944797   1.000000
  244      -11.944760   1.000000
  245      -11.944677   1.000000
  246      -11.943689   1.000000
  247      -11.943688   1.000000
  248      -11.943624   1.000000
  249      -11.813262   1.000000
  250      -11.813253   1.000000
  251      -11.795439   1.000000
  252      -11.795439   1.000000
  253      -11.795432   1.000000
  254      -11.527798   1.000000
  255      -11.527765   1.000000
  256      -11.527765   1.000000
  257       -9.590876   1.000000
  258       -9.263627   1.000000
  259       -9.240791   1.000000
  260       -9.240749   1.000000
  261       -9.233050   1.000000
  262       -9.199503   1.000000
  263       -9.199492   1.000000
  264       -9.199483   1.000000
  265       -9.067429   1.000000
  266       -9.056899   1.000000
  267       -9.056778   1.000000
  268       -9.056777   1.000000
  269       -9.008523   1.000000
  270       -9.008442   1.000000
  271       -8.992883   1.000000
  272       -8.992882   1.000000
  273       -8.992866   1.000000
  274       -8.965477   1.000000
  275       -8.933560   1.000000
  276       -8.933547   1.000000
  277       -8.933545   1.000000
  278       -8.894968   1.000000
  279       -8.894911   1.000000
  280       -8.894905   1.000000
  281       -8.877625   1.000000
  282       -8.877441   1.000000
  283       -8.877439   1.000000
  284       -8.849812   1.000000
  285       -8.849808   1.000000
  286       -8.849800   1.000000
  287       -8.695935   1.000000
  288       -8.695776   1.000000
  289       -8.695775   1.000000
  290       -8.688353   1.000000
  291       -8.688327   1.000000
  292       -8.688326   1.000000
  293       -8.658614   1.000000
  294       -8.658532   1.000000
  295       -8.658532   1.000000
  296       -8.631534   1.000000
  297       -8.631512   1.000000
  298       -8.544858   1.000000
  299       -8.544831   1.000000
  300       -8.544830   1.000000
  301       -8.457242   1.000000
  302       -8.457242   1.000000
  303       -8.457106   1.000000
  304       -8.406700   1.000000
  305       -8.376104   1.000000
  306       -8.376098   1.000000
  307       -8.376093   1.000000
  308       -8.346684   1.000000
  309       -8.346683   1.000000
  310       -8.346465   1.000000
  311       -8.345623   1.000000
  312       -8.345621   1.000000
  313       -8.345479   1.000000
  314       -8.321451   1.000000
  315       -8.314758   1.000000
  316       -8.314721   1.000000
  317       -8.305761   1.000000
  318       -8.305760   1.000000
  319       -8.305751   1.000000
  320       -8.293391   1.000000
  321       -8.293389   1.000000
  322       -8.293257   1.000000
  323       -8.219174   1.000000
  324       -8.208772   1.000000
  325       -8.208768   1.000000
  326       -8.208765   1.000000
  327       -8.195004   1.000000
  328       -8.195003   1.000000
  329       -8.194837   1.000000
  330       -8.153646   1.000000
  331       -8.153645   1.000000
  332       -8.153524   1.000000
  333       -8.136558   1.000000
  334       -8.136510   1.000000
  335       -8.089109   1.000000
  336       -8.089107   1.000000
  337       -8.088993   1.000000
  338       -7.957219   1.000000
  339       -7.957189   1.000000
  340       -7.957188   1.000000
  341       -7.943602   1.000000
  342       -7.943602   1.000000
  343       -7.943586   1.000000
  344       -7.929708   1.000000
  345       -7.884373   1.000000
  346       -7.884276   1.000000
  347       -7.847065   1.000000
  348       -7.846908   1.000000
  349       -7.846908   1.000000
  350       -7.845979   1.000000
  351       -7.800646   1.000000
  352       -7.800513   1.000000
  353       -7.800512   1.000000
  354       -7.799826   1.000000
  355       -7.799812   1.000000
  356       -7.767630   1.000000
  357       -7.767628   1.000000
  358       -7.767433   1.000000
  359       -7.729579   1.000000
  360       -7.729577   1.000000
  361       -7.729470   1.000000
  362       -7.651639   1.000000
  363       -7.651622   1.000000
  364       -7.651622   1.000000
  365       -7.613107   1.000000
  366       -7.613095   1.000000
  367       -7.613094   1.000000
  368       -7.600617   1.000000
  369       -7.594194   1.000000
  370       -7.594192   1.000000
  371       -7.594173   1.000000
  372       -7.537021   1.000000
  373       -7.537016   1.000000
  374       -7.537006   1.000000
  375       -7.507016   1.000000
  376       -7.507014   1.000000
  377       -7.506959   1.000000
  378       -7.492326   1.000000
  379       -7.404958   1.000000
  380       -7.404888   1.000000
  381       -7.392293   1.000000
  382       -7.392219   1.000000
  383       -7.392218   1.000000
  384       -7.379104   1.000000
  385       -7.379103   1.000000
  386       -7.379078   1.000000
  387       -7.291419   1.000000
  388       -7.291416   1.000000
  389       -7.291373   1.000000
  390       -7.264853   1.000000
  391       -7.264768   1.000000
  392       -7.262575   1.000000
  393       -7.217718   1.000000
  394       -7.217684   1.000000
  395       -7.217684   1.000000
  396       -7.212128   1.000000
  397       -7.148545   1.000000
  398       -7.148441   1.000000
  399       -7.148440   1.000000
  400       -7.088032   1.000000
  401       -7.049387   1.000000
  402       -7.049359   1.000000
  403       -7.049358   1.000000
  404       -6.992245   1.000000
  405       -6.988198   1.000000
  406       -6.988181   1.000000
  407       -6.988180   1.000000
  408       -6.970012   1.000000
  409       -6.969952   1.000000
  410       -6.969952   1.000000
  411       -6.926269   1.000000
  412       -6.923875   1.000000
  413       -6.923857   1.000000
  414       -6.913025   1.000000
  415       -6.912977   1.000000
  416       -6.904558   1.000000
  417       -6.904544   1.000000
  418       -6.904531   1.000000
  419       -6.871129   1.000000
  420       -6.871067   1.000000
  421       -6.871066   1.000000
  422       -6.828230   1.000000
  423       -6.828222   1.000000
  424       -6.797103   1.000000
  425       -6.732358   1.000000
  426       -6.732352   1.000000
  427       -6.732347   1.000000
  428       -6.708395   1.000000
  429       -6.610388   1.000000
  430       -6.610361   1.000000
  431       -6.610358   1.000000
  432       -6.503755   1.000000
  433       -6.503746   1.000000
  434       -6.503736   1.000000
  435       -6.462159   1.000000
  436       -6.443909   1.000000
  437       -6.443905   1.000000
  438       -6.443866   1.000000
  439       -6.437984   1.000000
  440       -6.437929   1.000000
  441       -6.436634   1.000000
  442       -6.436633   1.000000
  443       -6.436544   1.000000
  444       -6.398245   1.000000
  445       -6.398205   1.000000
  446       -6.384784   1.000000
  447       -6.384630   1.000000
  448       -6.384629   1.000000
  449       -6.359108   1.000000
  450       -6.359106   1.000000
  451       -6.359096   1.000000
  452       -6.354486   1.000000
  453       -6.291507   1.000000
  454       -6.291494   1.000000
  455       -6.291492   1.000000
  456       -6.253699   1.000000
  457       -6.253698   1.000000
  458       -6.253692   1.000000
  459       -6.222736   1.000000
  460       -6.222720   1.000000
  461       -6.222719   1.000000
  462       -6.207774   1.000000
  463       -6.207733   1.000000
  464       -6.181585   1.000000
  465       -6.159903   1.000000
  466       -6.137778   1.000000
  467       -6.137777   1.000000
  468       -6.137685   1.000000
  469       -6.133055   1.000000
  470       -6.132983   1.000000
  471       -6.132983   1.000000
  472       -6.109041   1.000000
  473       -6.109010   1.000000
  474       -6.042067   1.000000
  475       -6.042033   1.000000
  476       -6.019061   1.000000
  477       -6.019059   1.000000
  478       -6.019016   1.000000
  479       -5.990533   1.000000
  480       -5.990532   1.000000
  481       -5.990462   1.000000
  482       -5.968314   1.000000
  483       -5.940229   1.000000
  484       -5.940204   1.000000
  485       -5.940204   1.000000
  486       -5.858598   1.000000
  487       -5.858597   1.000000
  488       -5.858477   1.000000
  489       -5.818393   1.000000
  490       -5.811763   1.000000
  491       -5.811763   1.000000
  492       -5.811612   1.000000
  493       -5.790208   1.000000
  494       -5.790208   1.000000
  495       -5.790116   1.000000
  496       -5.727682   1.000000
  497       -5.724407   1.000000
  498       -5.724351   1.000000
  499       -5.649603   1.000000
  500       -5.649482   1.000000
  501       -5.536526   1.000000
  502       -5.536514   1.000000
  503       -5.536491   1.000000
  504       -5.486671   1.000000
  505       -5.486612   1.000000
  506       -5.486611   1.000000
  507       -5.485592   1.000000
  508       -5.485573   1.000000
  509       -5.482873   1.000000
  510       -5.446399   1.000000
  511       -5.446381   1.000000
  512       -5.446379   1.000000
  513       -5.436948   1.000000
  514       -5.436862   1.000000
  515       -5.436862   1.000000
  516       -5.425111   1.000000
  517       -5.370944   1.000000
  518       -5.363108   1.000000
  519       -5.363068   1.000000
  520       -5.363068   1.000000
  521       -5.343315   1.000000
  522       -5.343270   1.000000
  523       -5.330655   1.000000
  524       -5.330652   1.000000
  525       -5.330646   1.000000
  526       -5.316344   1.000000
  527       -5.316302   1.000000
  528       -5.316299   1.000000
  529       -5.279450   1.000000
  530       -5.279344   1.000000
  531       -5.279322   1.000000
  532       -5.279311   1.000000
  533       -5.224962   1.000000
  534       -5.224934   1.000000
  535       -5.224934   1.000000
  536       -5.218457   1.000000
  537       -5.218431   1.000000
  538       -5.160951   1.000000
  539       -5.160837   1.000000
  540       -5.160836   1.000000
  541       -5.148329   1.000000
  542       -5.148274   1.000000
  543       -5.148274   1.000000
  544       -5.139672   1.000000
  545       -5.098367   1.000000
  546       -5.098323   1.000000
  547       -5.098323   1.000000
  548       -5.090675   1.000000
  549       -5.090675   1.000000
  550       -5.090647   1.000000
  551       -5.044349   1.000000
  552       -5.044336   1.000000
  553       -5.002096   1.000000
  554       -5.001751   1.000000
  555       -5.001732   1.000000
  556       -5.001732   1.000000
  557       -4.991899   1.000000
  558       -4.991884   1.000000
  559       -4.991882   1.000000
  560       -4.980805   1.000000
  561       -4.980802   1.000000
  562       -4.980780   1.000000
  563       -4.968668   1.000000
  564       -4.968659   1.000000
  565       -4.968658   1.000000
  566       -4.967649   1.000000
  567       -4.967597   1.000000
  568       -4.937499   1.000000
  569       -4.937479   1.000000
  570       -4.937478   1.000000
  571       -4.935012   1.000000
  572       -4.935005   1.000000
  573       -4.935003   1.000000
  574       -4.933602   1.000000
  575       -4.933587   1.000000
  576       -4.906952   1.000000
  577       -4.880974   1.000000
  578       -4.880973   1.000000
  579       -4.880926   1.000000
  580       -4.797113   1.000000
  581       -4.783333   1.000000
  582       -4.783235   1.000000
  583       -4.776240   1.000000
  584       -4.776198   1.000000
  585       -4.776198   1.000000
  586       -4.772398   1.000000
  587       -4.772332   1.000000
  588       -4.772331   1.000000
  589       -4.760862   1.000000
  590       -4.760708   1.000000
  591       -4.759795   1.000000
  592       -4.671908   1.000000
  593       -4.671903   1.000000
  594       -4.671902   1.000000
  595       -4.668775   1.000000
  596       -4.655774   1.000000
  597       -4.655721   1.000000
  598       -4.655720   1.000000
  599       -4.647052   1.000000
  600       -4.623805   1.000000
  601       -4.623695   1.000000
  602       -4.623693   1.000000
  603       -4.611969   1.000000
  604       -4.582545   1.000000
  605       -4.582539   1.000000
  606       -4.582529   1.000000
  607       -4.560489   1.000000
  608       -4.560475   1.000000
  609       -4.560473   1.000000
  610       -4.546722   1.000000
  611       -4.546721   1.000000
  612       -4.546697   1.000000
  613       -4.535831   1.000000
  614       -4.535814   1.000000
  615       -4.535812   1.000000
  616       -4.524373   1.000000
  617       -4.524366   1.000000
  618       -4.524365   1.000000
  619       -4.521514   1.000000
  620       -4.521451   1.000000
  621       -4.515372   1.000000
  622       -4.515365   1.000000
  623       -4.504822   1.000000
  624       -4.504773   1.000000
  625       -4.504773   1.000000
  626       -4.423444   1.000000
  627       -4.423323   1.000000
  628       -4.374095   1.000000
  629       -4.373970   1.000000
  630       -4.373969   1.000000
  631       -4.369614   1.000000
  632       -4.363240   1.000000
  633       -4.344363   1.000000
  634       -4.343945   1.000000
  635       -4.343945   1.000000
  636       -4.339263   1.000000
  637       -4.339253   1.000000
  638       -4.339250   1.000000
  639       -4.326004   1.000000
  640       -4.325877   1.000000
  641       -4.288056   1.000000
  642       -4.207850   1.000000
  643       -4.207831   1.000000
  644       -4.207830   1.000000
  645       -4.191799   1.000000
  646       -4.191798   1.000000
  647       -4.191762   1.000000
  648       -4.164755   1.000000
  649       -4.164595   1.000000
  650       -4.164593   1.000000
  651       -4.110980   1.000000
  652       -4.110941   1.000000
  653       -4.110939   1.000000
  654       -4.101073   1.000000
  655       -4.100688   1.000000
  656       -4.084011   1.000000
  657       -4.084004   1.000000
  658       -4.084001   1.000000
  659       -4.042034   1.000000
  660       -4.042033   1.000000
  661       -4.041817   1.000000
  662       -4.036154   1.000000
  663       -4.036052   1.000000
  664       -4.036051   1.000000
  665       -3.997655   1.000000
  666       -3.954167   1.000000
  667       -3.954114   1.000000
  668       -3.954113   1.000000
  669       -3.946385   1.000000
  670       -3.945897   1.000000
  671       -3.933669   1.000000
  672       -3.933530   1.000000
  673       -3.933528   1.000000
  674       -3.912538   1.000000
  675       -3.912434   1.000000
  676       -3.912433   1.000000
  677       -3.817423   1.000000
  678       -3.817423   1.000000
  679       -3.817397   1.000000
  680       -3.807230   1.000000
  681       -3.807172   1.000000
  682       -3.807168   1.000000
  683       -3.794783   1.000000
  684       -3.794532   1.000000
  685       -3.788694   1.000000
  686       -3.788693   1.000000
  687       -3.788510   1.000000
  688       -3.752350   1.000000
  689       -3.698931   1.000000
  690       -3.698873   1.000000
  691       -3.688108   1.000000
  692       -3.688106   1.000000
  693       -3.687883   1.000000
  694       -3.673925   1.000000
  695       -3.673919   1.000000
  696       -3.673917   1.000000
  697       -3.644080   1.000000
  698       -3.643920   1.000000
  699       -3.643920   1.000000
  700       -3.637229   1.000000
  701       -3.637216   1.000000
  702       -3.637216   1.000000
  703       -3.578881   1.000000
  704       -3.573027   1.000000
  705       -3.573015   1.000000
  706       -3.573014   1.000000
  707       -3.556462   1.000000
  708       -3.556444   1.000000
  709       -3.556442   1.000000
  710       -3.410577   1.000000
  711       -3.410544   1.000000
  712       -3.396781   1.000000
  713       -3.396756   1.000000
  714       -3.396755   1.000000
  715       -3.345156   1.000000
  716       -3.345156   1.000000
  717       -3.345135   1.000000
  718       -3.300027   1.000000
  719       -3.299569   1.000000
  720       -3.297087   1.000000
  721       -3.277959   1.000000
  722       -3.277958   1.000000
  723       -3.277791   1.000000
  724       -3.269964   1.000000
  725       -3.269964   1.000000
  726       -3.269539   1.000000
  727       -3.181019   1.000000
  728       -3.180939   1.000000
  729       -3.180938   1.000000
  730       -3.158286   1.000000
  731       -3.158284   1.000000
  732       -3.158253   1.000000
  733       -3.144531   1.000000
  734       -3.144506   1.000000
  735       -3.144504   1.000000
  736       -3.130299   1.000000
  737       -3.130015   1.000000
  738       -3.105769   1.000000
  739       -3.105769   1.000000
  740       -3.105504   1.000000
  741       -3.102066   1.000000
  742       -3.102037   1.000000
  743       -3.102034   1.000000
  744       -3.029881   1.000000
  745       -3.029880   1.000000
  746       -3.029497   1.000000
  747       -2.966293   1.000000
  748       -2.966282   1.000000
  749       -2.966280   1.000000
  750       -2.877520   1.000000
  751       -2.877519   1.000000
  752       -2.877414   1.000000
  753       -2.851980   1.000000
  754       -2.836902   1.000000
  755       -2.836745   1.000000
  756       -2.831218   1.000000
  757       -2.831218   1.000000
  758       -2.831101   1.000000
  759       -2.746714   1.000000
  760       -2.746714   1.000000
  761       -2.746430   1.000000
  762       -2.741420   1.000000
  763       -2.741420   1.000000
  764       -2.741262   1.000000
  765       -2.662599   1.000000
  766       -2.662598   1.000000
  767       -2.662544   1.000000
  768       -2.619957   1.000000
  769       -2.619955   1.000000
  770       -2.619802   1.000000
  771       -2.618774   1.000000
  772       -2.618667   1.000000
  773       -2.618667   1.000000
  774       -2.614126   1.000000
  775       -2.613846   1.000000
  776       -2.586396   1.000000
  777       -2.586344   1.000000
  778       -2.586342   1.000000
  779       -2.560725   1.000000
  780       -2.560711   1.000000
  781       -2.560710   1.000000
  782       -2.558614   1.000000
  783       -2.558611   1.000000
  784       -2.558223   1.000000
  785       -2.543024   1.000000
  786       -2.512761   1.000000
  787       -2.512761   1.000000
  788       -2.512735   1.000000
  789       -2.370052   1.000000
  790       -2.370051   1.000000
  791       -2.369956   1.000000
  792       -2.328334   1.000000
  793       -2.295719   1.000000
  794       -2.295659   1.000000
  795       -2.295659   1.000000
  796       -2.274781   1.000000
  797       -2.274781   1.000000
  798       -2.274774   1.000000
  799       -2.262746   1.000000
  800       -2.262744   1.000000
  801       -2.244594   1.000000
  802       -2.244594   1.000000
  803       -2.244549   1.000000
  804       -2.242225   1.000000
  805       -2.241815   1.000000
  806       -2.178996   1.000000
  807       -2.178996   1.000000
  808       -2.178616   1.000000
  809       -2.168921   1.000000
  810       -2.168919   1.000000
  811       -2.168758   1.000000
  812       -2.126745   1.000000
  813       -2.126729   1.000000
  814       -2.126727   1.000000
  815       -2.125023   1.000000
  816       -2.124695   1.000000
  817       -2.124694   1.000000
  818       -2.120525   1.000000
  819       -2.091551   1.000000
  820       -2.091537   1.000000
  821       -2.076547   1.000000
  822       -2.076540   1.000000
  823       -2.076538   1.000000
  824       -2.051003   1.000000
  825       -2.051000   1.000000
  826       -2.050990   1.000000
  827       -2.035292   1.000000
  828       -2.035213   1.000000
  829       -2.035212   1.000000
  830       -2.017066   1.000000
  831       -2.017037   1.000000
  832       -2.017035   1.000000
  833       -1.992056   1.000000
  834       -1.965062   1.000000
  835       -1.941736   1.000000
  836       -1.928622   1.000000
  837       -1.928618   1.000000
  838       -1.928579   1.000000
  839       -1.854677   1.000000
  840       -1.854559   1.000000
  841       -1.830234   1.000000
  842       -1.816629   1.000000
  843       -1.808047   1.000000
  844       -1.772402   1.000000
  845       -1.764159   1.000000
  846       -1.764157   1.000000
  847       -1.764107   1.000000
  848       -1.763039   1.000000
  849       -1.763006   1.000000
  850       -1.742458   1.000000
  851       -1.742346   1.000000
  852       -1.712499   1.000000
  853       -1.712349   1.000000
  854       -1.712346   1.000000
  855       -1.684374   1.000000
  856       -1.684212   1.000000
  857       -1.646594   1.000000
  858       -1.646578   1.000000
  859       -1.646575   1.000000
  860       -1.578735   1.000000
  861       -1.578696   1.000000
  862       -1.578693   1.000000
  863       -1.532188   1.000000
  864       -1.531985   1.000000
  865       -1.531984   1.000000
  866       -1.514995   1.000000
  867       -1.514670   1.000000
  868       -1.514669   1.000000
  869       -1.494131   1.000000
  870       -1.494085   1.000000
  871       -1.487181   1.000000
  872       -1.487169   1.000000
  873       -1.487168   1.000000
  874       -1.403421   1.000000
  875       -1.402868   1.000000
  876       -1.402867   1.000000
  877       -1.359220   1.000000
  878       -1.359218   1.000000
  879       -1.359199   1.000000
  880       -1.328052   1.000000
  881       -1.327525   1.000000
  882       -1.298450   1.000000
  883       -1.298438   1.000000
  884       -1.284901   1.000000
  885       -1.284077   1.000000
  886       -1.284073   1.000000
  887       -1.284072   1.000000
  888       -1.246239   1.000000
  889       -1.246239   1.000000
  890       -1.246080   1.000000
  891       -1.194931   1.000000
  892       -1.139321   1.000000
  893       -1.139301   1.000000
  894       -1.139298   1.000000
  895       -1.137830   1.000000
  896       -1.137778   1.000000
  897       -1.132271   1.000000
  898       -1.132266   1.000000
  899       -1.132264   1.000000
  900       -1.113541   1.000000
  901       -1.113526   1.000000