<?xml version="1.0" encoding="ISO-8859-1"?>
<modeling>
 <generator>
  <i name="program" type="string">vasp </i>
  <i name="version" type="string">6.2.1  </i>
  <i name="subversion" type="string">16May21 (build May 12 2022 08:28:04) complex                          parallel </i>
  <i name="platform" type="string">LinuxPGI </i>
  <i name="date" type="string">2022 07 12 </i>
  <i name="time" type="string">04:44:31 </i>
 </generator>
 <incar>
  <i type="string" name="SYSTEM">NiAl</i>
  <i type="int" name="ISTART">     0</i>
  <i type="int" name="NELMIN">     6</i>
  <i type="int" name="IBRION">     2</i>
  <i name="EDIFF">      0.00000500</i>
  <i type="int" name="NSW">    40</i>
  <i type="int" name="ISIF">     0</i>
  <i name="ENCUT">    360.00000000</i>
  <i name="POTIM">      0.20000000</i>
  <i type="string" name="LREAL">Auto</i>
  <i type="logical" name="LPLANE"> T  </i>
  <i type="int" name="ISMEAR">     0</i>
  <i name="SIGMA">      0.05000000</i>
  <i type="logical" name="LWAVE"> F  </i>
  <i type="logical" name="LCHARG"> F  </i>
  <i type="int" name="IVDW">    12</i>
 </incar>
 <primitive_cell>
  <structure name="primitive_cell" >
   <crystal>
    <varray name="basis" >
     <v>      -4.29514440      -7.43940539       0.00000000 </v>
     <v>       8.59028677       0.00000000       0.00000000 </v>
     <v>       0.00000000       0.00000000      40.00000000 </v>
    </varray>
    <i name="volume">   2556.26502809 </i>
    <varray name="rec_basis" >
     <v>       0.00000000      -0.13441935       0.00000000 </v>
     <v>       0.11641055      -0.06720969       0.00000000 </v>
     <v>      -0.00000000       0.00000000       0.02500000 </v>
    </varray>
   </crystal>
   <varray name="positions" >
    <v>       0.11111105       0.88888868       0.05844950 </v>
    <v>       0.44444438       0.88888878       0.05844950 </v>
    <v>       0.77777760       0.88888870       0.05844950 </v>
    <v>       0.11111105       0.55555538       0.05844950 </v>
    <v>       0.44444438       0.55555542       0.05844950 </v>
    <v>       0.77777760       0.55555534       0.05844950 </v>
    <v>       0.11111105       0.22222203       0.05844950 </v>
    <v>       0.44444438       0.22222207       0.05844950 </v>
    <v>       0.77777760       0.22222199       0.05844950 </v>
    <v>       0.88888877       0.11111084       0.11689901 </v>
    <v>       0.22222216       0.11111100       0.11689901 </v>
    <v>       0.55555532       0.11111092       0.11689901 </v>
    <v>       0.88888877       0.77777755       0.11689901 </v>
    <v>       0.22222216       0.77777765       0.11689901 </v>
    <v>       0.55555532       0.77777751       0.11689901 </v>
    <v>       0.88888877       0.44444426       0.11689901 </v>
    <v>       0.22222216       0.44444430       0.11689901 </v>
    <v>       0.55555532       0.44444434       0.11689901 </v>
    <v>       0.66666667       0.33333301       0.17534850 </v>
    <v>       0.99999994       0.33333317       0.17534850 </v>
    <v>       0.33333345       0.33333309       0.17534850 </v>
    <v>       0.66666667       0.99999978       0.17534850 </v>
    <v>       0.99999994       0.99999982       0.17534850 </v>
    <v>       0.33333345       0.99999986       0.17534850 </v>
    <v>       0.66666667       0.66666655       0.17534850 </v>
    <v>       0.99999994       0.66666635       0.17534850 </v>
    <v>       0.33333345       0.66666639       0.17534850 </v>
    <v>       0.44444438       0.55555548       0.23379801 </v>
    <v>       0.77777760       0.55555516       0.23379801 </v>
    <v>       0.11111111       0.55555520       0.23379801 </v>
    <v>       0.44444438       0.22222219       0.23379801 </v>
    <v>       0.77777760       0.22222199       0.23379801 </v>
    <v>       0.11111111       0.22222191       0.23379801 </v>
    <v>       0.44444438       0.88888895       0.23379801 </v>
    <v>       0.77777760       0.88888864       0.23379801 </v>
    <v>       0.11111111       0.88888868       0.23379801 </v>
    <v>       0.22222228       0.77777777       0.29224748 </v>
    <v>       0.55555532       0.77777733       0.29224748 </v>
    <v>       0.88888877       0.77777749       0.29224748 </v>
    <v>       0.22222228       0.44444430       0.29224748 </v>
    <v>       0.55555532       0.44444434       0.29224748 </v>
    <v>       0.88888877       0.44444402       0.29224748 </v>
    <v>       0.22222228       0.11111124       0.29224748 </v>
    <v>       0.55555532       0.11111081       0.29224748 </v>
    <v>       0.88888877       0.11111096       0.29224748 </v>
    <v>       0.99999994       0.00000006       0.35069700 </v>
    <v>       0.33333345       0.99999986       0.35069700 </v>
    <v>       0.66666667       0.99999978       0.35069700 </v>
    <v>       0.99999994       0.66666659       0.35069700 </v>
    <v>       0.33333345       0.66666639       0.35069700 </v>
    <v>       0.66666667       0.66666631       0.35069700 </v>
    <v>       0.99999994       0.33333305       0.35069700 </v>
    <v>       0.33333345       0.33333333       0.35069700 </v>
    <v>       0.66666667       0.33333325       0.35069700 </v>
    <v>       0.77777784       0.22222187       0.40914649 </v>
    <v>       0.11111111       0.22222215       0.40914649 </v>
    <v>       0.44444438       0.22222243       0.40914649 </v>
    <v>       0.77777784       0.88888887       0.40914649 </v>
    <v>       0.11111111       0.88888868       0.40914649 </v>
    <v>       0.44444438       0.88888895       0.40914649 </v>
    <v>       0.77777784       0.55555540       0.40914649 </v>
    <v>       0.11111111       0.55555520       0.40914649 </v>
    <v>       0.44444438       0.55555548       0.40914649 </v>
    <v>       0.99999994       0.99999982       0.44414649 </v>
    <v>       0.99999994       0.99999982       0.47414649 </v>
    <v>       0.99999994       0.99999982       0.50414649 </v>
    <v>       0.99999994       0.99999982       0.53414649 </v>
    <v>       0.74999992       0.99999979       0.44414649 </v>
    <v>       0.74999992       0.99999979       0.47414649 </v>
    <v>       0.74999992       0.99999979       0.50414649 </v>
    <v>       0.74999992       0.99999979       0.53414649 </v>
    <v>       0.49999997       0.99999988       0.44414649 </v>
    <v>       0.49999997       0.99999988       0.47414649 </v>
    <v>       0.49999997       0.99999988       0.50414649 </v>
    <v>       0.49999997       0.99999988       0.53414649 </v>
    <v>       0.24999995       0.99999985       0.44414649 </v>
    <v>       0.24999995       0.99999985       0.47414649 </v>
    <v>       0.24999995       0.99999985       0.50414649 </v>
    <v>       0.24999995       0.99999985       0.53414649 </v>
    <v>       0.99999994       0.24999981       0.44414649 </v>
    <v>       0.99999994       0.24999981       0.47414649 </v>
    <v>       0.99999994       0.24999981       0.50414649 </v>
    <v>       0.99999994       0.24999981       0.53414649 </v>
    <v>       0.74999992       0.24999978       0.44414649 </v>
    <v>       0.74999992       0.24999978       0.47414649 </v>
    <v>       0.74999992       0.24999978       0.50414649 </v>
    <v>       0.74999992       0.24999978       0.53414649 </v>
    <v>       0.49999997       0.24999987       0.44414649 </v>
    <v>       0.49999997       0.24999987       0.47414649 </v>
    <v>       0.49999997       0.24999987       0.50414649 </v>
    <v>       0.49999997       0.24999987       0.53414649 </v>
    <v>       0.24999995       0.24999984       0.44414649 </v>
    <v>       0.24999995       0.24999984       0.47414649 </v>
    <v>       0.24999995       0.24999984       0.50414649 </v>
    <v>       0.24999995       0.24999984       0.53414649 </v>
    <v>       0.99999994       0.49999985       0.44414649 </v>
    <v>       0.99999994       0.49999985       0.47414649 </v>
    <v>       0.99999994       0.49999985       0.50414649 </v>
    <v>       0.99999994       0.49999985       0.53414649 </v>
    <v>       0.74999992       0.49999982       0.44414649 </v>
    <v>       0.74999992       0.49999982       0.47414649 </v>
    <v>       0.74999992       0.49999982       0.50414649 </v>
    <v>       0.74999992       0.49999982       0.53414649 </v>
    <v>       0.49999997       0.49999991       0.44414649 </v>
    <v>       0.49999997       0.49999991       0.47414649 </v>
    <v>       0.49999997       0.49999991       0.50414649 </v>
    <v>       0.49999997       0.49999991       0.53414649 </v>
    <v>       0.24999995       0.49999988       0.44414649 </v>
    <v>       0.24999995       0.49999988       0.47414649 </v>
    <v>       0.24999995       0.49999988       0.50414649 </v>
    <v>       0.24999995       0.49999988       0.53414649 </v>
    <v>       0.99999994       0.74999983       0.44414649 </v>
    <v>       0.99999994       0.74999983       0.47414649 </v>
    <v>       0.99999994       0.74999983       0.50414649 </v>
    <v>       0.99999994       0.74999983       0.53414649 </v>
    <v>       0.74999992       0.74999980       0.44414649 </v>
    <v>       0.74999992       0.74999980       0.47414649 </v>
    <v>       0.74999992       0.74999980       0.50414649 </v>
    <v>       0.74999992       0.74999980       0.53414649 </v>
    <v>       0.49999997       0.74999990       0.44414649 </v>
    <v>       0.49999997       0.74999990       0.47414649 </v>
    <v>       0.49999997       0.74999990       0.50414649 </v>
    <v>       0.49999997       0.74999990       0.53414649 </v>
    <v>       0.24999995       0.74999987       0.44414649 </v>
    <v>       0.24999995       0.74999987       0.47414649 </v>
    <v>       0.24999995       0.74999987       0.50414649 </v>
    <v>       0.24999995       0.74999987       0.53414649 </v>
   </varray>
  </structure>
  <varray name="primitive_index" >
   <v type="int" >        1 </v>
   <v type="int" >      190 </v>
   <v type="int" >      191 </v>
   <v type="int" >      127 </v>
   <v type="int" >       64 </v>
   <v type="int" >       65 </v>
   <v type="int" >      130 </v>
   <v type="int" >       67 </v>
   <v type="int" >       68 </v>
   <v type="int" >       10 </v>
   <v type="int" >      199 </v>
   <v type="int" >       12 </v>
   <v type="int" >      136 </v>
   <v type="int" >       73 </v>
   <v type="int" >      138 </v>
   <v type="int" >       16 </v>
   <v type="int" >      205 </v>
   <v type="int" >       18 </v>
   <v type="int" >       19 </v>
   <v type="int" >      208 </v>
   <v type="int" >       21 </v>
   <v type="int" >      145 </v>
   <v type="int" >       82 </v>
   <v type="int" >      147 </v>
   <v type="int" >       25 </v>
   <v type="int" >      214 </v>
   <v type="int" >       27 </v>
   <v type="int" >       99 </v>
   <v type="int" >       97 </v>
   <v type="int" >      162 </v>
   <v type="int" >       93 </v>
   <v type="int" >       91 </v>
   <v type="int" >      156 </v>
   <v type="int" >      225 </v>
   <v type="int" >      223 </v>
   <v type="int" >       36 </v>
   <v type="int" >      108 </v>
   <v type="int" >      170 </v>
   <v type="int" >      171 </v>
   <v type="int" >      231 </v>
   <v type="int" >       41 </v>
   <v type="int" >       42 </v>
   <v type="int" >      234 </v>
   <v type="int" >       44 </v>
   <v type="int" >       45 </v>
   <v type="int" >      117 </v>
   <v type="int" >      179 </v>
   <v type="int" >      180 </v>
   <v type="int" >      240 </v>
   <v type="int" >       50 </v>
   <v type="int" >       51 </v>
   <v type="int" >      243 </v>
   <v type="int" >       53 </v>
   <v type="int" >       54 </v>
   <v type="int" >      126 </v>
   <v type="int" >      188 </v>
   <v type="int" >      125 </v>
   <v type="int" >      249 </v>
   <v type="int" >       59 </v>
   <v type="int" >      248 </v>
   <v type="int" >      123 </v>
   <v type="int" >      185 </v>
   <v type="int" >      122 </v>
   <v type="int" >      397 </v>
   <v type="int" >      398 </v>
   <v type="int" >      399 </v>
   <v type="int" >      400 </v>
   <v type="int" >      401 </v>
   <v type="int" >      402 </v>
   <v type="int" >      403 </v>
   <v type="int" >      404 </v>
   <v type="int" >      389 </v>
   <v type="int" >      390 </v>
   <v type="int" >      391 </v>
   <v type="int" >      392 </v>
   <v type="int" >      393 </v>
   <v type="int" >      394 </v>
   <v type="int" >      395 </v>
   <v type="int" >      396 </v>
   <v type="int" >      429 </v>
   <v type="int" >      430 </v>
   <v type="int" >      431 </v>
   <v type="int" >      432 </v>
   <v type="int" >      433 </v>
   <v type="int" >      434 </v>
   <v type="int" >      435 </v>
   <v type="int" >      436 </v>
   <v type="int" >      421 </v>
   <v type="int" >      422 </v>
   <v type="int" >      423 </v>
   <v type="int" >      424 </v>
   <v type="int" >      425 </v>
   <v type="int" >      426 </v>
   <v type="int" >      427 </v>
   <v type="int" >      428 </v>
   <v type="int" >      333 </v>
   <v type="int" >      334 </v>
   <v type="int" >      335 </v>
   <v type="int" >      336 </v>
   <v type="int" >      337 </v>
   <v type="int" >      338 </v>
   <v type="int" >      339 </v>
   <v type="int" >      340 </v>
   <v type="int" >      325 </v>
   <v type="int" >      326 </v>
   <v type="int" >      327 </v>
   <v type="int" >      328 </v>
   <v type="int" >      329 </v>
   <v type="int" >      330 </v>
   <v type="int" >      331 </v>
   <v type="int" >      332 </v>
   <v type="int" >      365 </v>
   <v type="int" >      366 </v>
   <v type="int" >      367 </v>
   <v type="int" >      368 </v>
   <v type="int" >      369 </v>
   <v type="int" >      370 </v>
   <v type="int" >      371 </v>
   <v type="int" >      372 </v>
   <v type="int" >      357 </v>
   <v type="int" >      358 </v>
   <v type="int" >      359 </v>
   <v type="int" >      360 </v>
   <v type="int" >      361 </v>
   <v type="int" >      362 </v>
   <v type="int" >      363 </v>
   <v type="int" >      364 </v>
  </varray>
 </primitive_cell>
 <kpoints>
  <generation param="Gamma">
   <v type="int" name="divisions">       2        2        1 </v>
   <v name="usershift">      0.00000000       0.00000000       0.00000000 </v>
   <v name="genvec1">      0.50000000       0.00000000       0.00000000 </v>
   <v name="genvec2">      0.00000000       0.50000000       0.00000000 </v>
   <v name="genvec3">      0.00000000       0.00000000       1.00000000 </v>
   <v name="shift">      0.00000000       0.00000000       0.00000000 </v>
  </generation>
  <varray name="kpointlist" >
   <v>       0.00000000       0.00000000       0.00000000 </v>
   <v>       0.50000000       0.00000000       0.00000000 </v>
  </varray>
  <varray name="weights" >
   <v>       0.25000000 </v>
   <v>       0.75000000 </v>
  </varray>
 </kpoints>
 <parameters>
  <separator name="general" >
   <i type="string" name="SYSTEM">NiAl</i>
   <i type="logical" name="LCOMPAT"> F  </i>
  </separator>
  <separator name="electronic" >
   <i type="string" name="PREC">normal</i>
   <i name="ENMAX">    360.00000000</i>
   <i name="ENAUG">   1139.60900000</i>
   <i name="EDIFF">      0.00000500</i>
   <i type="int" name="IALGO">    38</i>
   <i type="int" name="IWAVPR">    11</i>
   <i type="int" name="NBANDS">  1401</i>
   <i type="int" name="NBANDSLOW">    -1</i>
   <i type="int" name="NBANDSHIGH">    -1</i>
   <i name="NELECT">   2292.00000000</i>
   <i type="int" name="TURBO">     0</i>
   <i type="int" name="IRESTART">     0</i>
   <i type="int" name="NREBOOT">     0</i>
   <i type="int" name="NMIN">     0</i>
   <i name="EREF">      0.00000000</i>
   <separator name="electronic smearing" >
    <i type="int" name="ISMEAR">     0</i>
    <i name="SIGMA">      0.05000000</i>
    <i name="KSPACING">      0.50000000</i>
    <i type="logical" name="KGAMMA"> T  </i>
    <i type="logical" name="KBLOWUP"> T  </i>
   </separator>
   <separator name="electronic projectors" >
    <i type="logical" name="LREAL"> T  </i>
    <v name="ROPT">     -0.00050000     -0.00050000</v>
    <i type="int" name="LMAXPAW">  -100</i>
    <i type="int" name="LMAXMIX">     2</i>
    <i type="logical" name="NLSPLINE"> F  </i>
   </separator>
   <separator name="electronic startup" >
    <i type="int" name="ISTART">     0</i>
    <i type="int" name="ICHARG">     2</i>
    <i type="int" name="INIWAV">     1</i>
   </separator>
   <separator name="electronic spin" >
    <i type="int" name="ISPIN">     1</i>
    <i type="logical" name="LNONCOLLINEAR"> F  </i>
    <v name="MAGMOM">      1.00000000      1.00000000      1.00000000      1.00000000      1.00000000      1.00000000      1.00000000      1.00000000      1.00000000      1.00000000      1.00000000      1.00000000      1.00000000      1.00000000      1.00000000      1.00000000      1.00000000      1.00000000      1.00000000      1.00000000
      1.00000000      1.00000000      1.00000000      1.00000000      1.00000000      1.00000000      1.00000000      1.00000000      1.00000000      1.00000000      1.00000000      1.00000000      1.00000000      1.00000000      1.00000000      1.00000000      1.00000000      1.00000000      1.00000000      1.00000000
      1.00000000      1.00000000      1.00000000      1.00000000      1.00000000      1.00000000      1.00000000      1.00000000      1.00000000      1.00000000      1.00000000      1.00000000      1.00000000      1.00000000      1.00000000      1.00000000      1.00000000      1.00000000      1.00000000      1.00000000
      1.00000000      1.00000000      1.00000000      1.00000000      1.00000000      1.00000000      1.00000000      1.00000000      1.00000000      1.00000000      1.00000000      1.00000000      1.00000000      1.00000000      1.00000000      1.00000000      1.00000000      1.00000000      1.00000000      1.00000000
      1.00000000      1.00000000      1.00000000      1.00000000      1.00000000      1.00000000      1.00000000      1.00000000      1.00000000      1.00000000      1.00000000      1.00000000      1.00000000      1.00000000      1.00000000      1.00000000      1.00000000      1.00000000      1.00000000      1.00000000
      1.00000000      1.00000000      1.00000000      1.00000000      1.00000000      1.00000000      1.00000000      1.00000000      1.00000000      1.00000000      1.00000000      1.00000000      1.00000000      1.00000000      1.00000000      1.00000000      1.00000000      1.00000000      1.00000000      1.00000000
      1.00000000      1.00000000      1.00000000      1.00000000      1.00000000      1.00000000      1.00000000      1.00000000      1.00000000      1.00000000      1.00000000      1.00000000      1.00000000      1.00000000      1.00000000      1.00000000      1.00000000      1.00000000      1.00000000      1.00000000
      1.00000000      1.00000000      1.00000000      1.00000000      1.00000000      1.00000000      1.00000000      1.00000000      1.00000000      1.00000000      1.00000000      1.00000000      1.00000000      1.00000000      1.00000000      1.00000000      1.00000000      1.00000000      1.00000000      1.00000000
      1.00000000      1.00000000      1.00000000      1.00000000      1.00000000      1.00000000      1.00000000      1.00000000      1.00000000      1.00000000      1.00000000      1.00000000      1.00000000      1.00000000      1.00000000      1.00000000      1.00000000      1.00000000      1.00000000      1.00000000
      1.00000000      1.00000000      1.00000000      1.00000000      1.00000000      1.00000000      1.00000000      1.00000000      1.00000000      1.00000000      1.00000000      1.00000000      1.00000000      1.00000000      1.00000000      1.00000000      1.00000000      1.00000000      1.00000000      1.00000000
      1.00000000      1.00000000      1.00000000      1.00000000      1.00000000      1.00000000      1.00000000      1.00000000      1.00000000      1.00000000      1.00000000      1.00000000      1.00000000      1.00000000      1.00000000      1.00000000      1.00000000      1.00000000      1.00000000      1.00000000
      1.00000000      1.00000000      1.00000000      1.00000000      1.00000000      1.00000000      1.00000000      1.00000000      1.00000000      1.00000000      1.00000000      1.00000000      1.00000000      1.00000000      1.00000000      1.00000000      1.00000000      1.00000000      1.00000000      1.00000000
      1.00000000      1.00000000      1.00000000      1.00000000      1.00000000      1.00000000      1.00000000      1.00000000      1.00000000      1.00000000      1.00000000      1.00000000      1.00000000      1.00000000      1.00000000      1.00000000      1.00000000      1.00000000      1.00000000      1.00000000
      1.00000000      1.00000000      1.00000000      1.00000000      1.00000000      1.00000000      1.00000000      1.00000000      1.00000000      1.00000000      1.00000000      1.00000000      1.00000000      1.00000000      1.00000000      1.00000000      1.00000000      1.00000000      1.00000000      1.00000000
      1.00000000      1.00000000      1.00000000      1.00000000      1.00000000      1.00000000      1.00000000      1.00000000      1.00000000      1.00000000      1.00000000      1.00000000      1.00000000      1.00000000      1.00000000      1.00000000      1.00000000      1.00000000      1.00000000      1.00000000
      1.00000000      1.00000000      1.00000000      1.00000000      1.00000000      1.00000000      1.00000000      1.00000000      1.00000000      1.00000000      1.00000000      1.00000000      1.00000000      1.00000000      1.00000000      1.00000000      1.00000000      1.00000000      1.00000000      1.00000000
      1.00000000      1.00000000      1.00000000      1.00000000      1.00000000      1.00000000      1.00000000      1.00000000      1.00000000      1.00000000      1.00000000      1.00000000      1.00000000      1.00000000      1.00000000      1.00000000      1.00000000      1.00000000      1.00000000      1.00000000
      1.00000000      1.00000000      1.00000000      1.00000000      1.00000000      1.00000000      1.00000000      1.00000000      1.00000000      1.00000000      1.00000000      1.00000000      1.00000000      1.00000000      1.00000000      1.00000000      1.00000000      1.00000000      1.00000000      1.00000000
      1.00000000      1.00000000      1.00000000      1.00000000      1.00000000      1.00000000      1.00000000      1.00000000      1.00000000      1.00000000      1.00000000      1.00000000      1.00000000      1.00000000      1.00000000      1.00000000      1.00000000      1.00000000      1.00000000      1.00000000
      1.00000000      1.00000000      1.00000000      1.00000000      1.00000000      1.00000000      1.00000000      1.00000000      1.00000000      1.00000000      1.00000000      1.00000000      1.00000000      1.00000000      1.00000000      1.00000000      1.00000000      1.00000000      1.00000000      1.00000000
      1.00000000      1.00000000      1.00000000      1.00000000      1.00000000      1.00000000      1.00000000      1.00000000      1.00000000      1.00000000      1.00000000      1.00000000      1.00000000      1.00000000      1.00000000      1.00000000      1.00000000      1.00000000      1.00000000      1.00000000
      1.00000000      1.00000000      1.00000000      1.00000000      1.00000000      1.00000000      1.00000000      1.00000000      1.00000000      1.00000000      1.00000000      1.00000000      1.00000000      1.00000000      1.00000000      1.00000000      1.00000000      1.00000000      1.00000000      1.00000000
      1.00000000      1.00000000      1.00000000      1.00000000      1.00000000      1.00000000      1.00000000      1.00000000      1.00000000      1.00000000      1.00000000      1.00000000      1.00000000      1.00000000      1.00000000      1.00000000      1.00000000      1.00000000      1.00000000      1.00000000
      1.00000000      1.00000000      1.00000000      1.00000000      1.00000000      1.00000000      1.00000000      1.00000000      1.00000000      1.00000000      1.00000000      1.00000000      1.00000000      1.00000000      1.00000000      1.00000000      1.00000000      1.00000000      1.00000000      1.00000000
      1.00000000      1.00000000      1.00000000      1.00000000      1.00000000      1.00000000      1.00000000      1.00000000      1.00000000      1.00000000      1.00000000      1.00000000      1.00000000      1.00000000      1.00000000      1.00000000      1.00000000      1.00000000      1.00000000      1.00000000
      1.00000000      1.00000000      1.00000000      1.00000000      1.00000000      1.00000000      1.00000000      1.00000000</v>
    <i name="NUPDOWN">     -1.00000000</i>
    <i type="logical" name="LSORBIT"> F  </i>
    <v name="SAXIS">      0.00000000      0.00000000      1.00000000</v>
    <i type="logical" name="LSPIRAL"> F  </i>
    <v name="QSPIRAL">      0.00000000      0.00000000      0.00000000</v>
    <i type="logical" name="LZEROZ"> F  </i>
   </separator>
   <separator name="electronic exchange-correlation" >
    <i type="logical" name="LASPH"> F  </i>
    <i type="logical" name="LMETAGGA"> F  </i>
   </separator>
   <separator name="electronic convergence" >
    <i type="int" name="NELM">    60</i>
    <i type="int" name="NELMDL">    -5</i>
    <i type="int" name="NELMIN">     6</i>
    <i name="ENINI">    360.00000000</i>
    <separator name="electronic convergence detail" >
     <i type="logical" name="LDIAG"> T  </i>
     <i type="logical" name="LSUBROT"> F  </i>
     <i name="WEIMIN">      0.00100000</i>
     <i name="EBREAK">      0.00000000</i>
     <i name="DEPER">      0.30000000</i>
     <i type="int" name="NRMM">     4</i>
     <i name="TIME">      0.40000000</i>
    </separator>
   </separator>
   <separator name="electronic mixer" >
    <i name="AMIX">      0.40000000</i>
    <i name="BMIX">      1.00000000</i>
    <i name="AMIN">      0.10000000</i>
    <i name="AMIX_MAG">      1.60000000</i>
    <i name="BMIX_MAG">      1.00000000</i>
    <separator name="electronic mixer details" >
     <i type="int" name="IMIX">     4</i>
     <i type="logical" name="MIXFIRST"> F  </i>
     <i type="int" name="MAXMIX">   -45</i>
     <i name="WC">    100.00000000</i>
     <i type="int" name="INIMIX">     1</i>
     <i type="int" name="MIXPRE">     1</i>
     <i type="int" name="MREMOVE">     5</i>
    </separator>
   </separator>
   <separator name="electronic dipolcorrection" >
    <i type="logical" name="LDIPOL"> F  </i>
    <i type="logical" name="LMONO"> F  </i>
    <i type="int" name="IDIPOL">     0</i>
    <i name="EPSILON">      1.00000000</i>
    <v name="DIPOL">   -100.00000000   -100.00000000   -100.00000000</v>
    <i name="EFIELD">      0.00000000</i>
   </separator>
  </separator>
  <separator name="grids" >
   <i type="int" name="NGX">    80</i>
   <i type="int" name="NGY">    80</i>
   <i type="int" name="NGZ">   192</i>
   <i type="int" name="NGXF">   160</i>
   <i type="int" name="NGYF">   160</i>
   <i type="int" name="NGZF">   384</i>
   <i type="logical" name="ADDGRID"> F  </i>
  </separator>
  <separator name="ionic" >
   <i type="int" name="NSW">    40</i>
   <i type="int" name="IBRION">     2</i>
   <i type="int" name="MDALGO">     0</i>
   <i type="int" name="ISIF">     0</i>
   <i name="PSTRESS">      0.00000000</i>
   <i name="EDIFFG">      0.00005000</i>
   <i type="int" name="NFREE">     1</i>
   <i name="POTIM">      0.20000000</i>
   <i name="SMASS">     -3.00000000</i>
   <i name="SCALEE">      1.00000000</i>
  </separator>
  <separator name="ionic md" >
   <i name="TEBEG">      0.00010000</i>
   <i name="TEEND">      0.00010000</i>
   <i type="int" name="NBLOCK">     1</i>
   <i type="int" name="KBLOCK">    40</i>
   <i type="int" name="NPACO">   256</i>
   <i name="APACO">     16.00000000</i>
  </separator>
  <separator name="symmetry" >
   <i type="int" name="ISYM">     2</i>
   <i name="SYMPREC">      0.00001000</i>
  </separator>
  <separator name="dos" >
   <i type="int" name="LORBIT">     0</i>
   <v name="RWIGS">     -1.00000000     -1.00000000</v>
   <i type="int" name="NEDOS">   301</i>
   <i name="EMIN">     10.00000000</i>
   <i name="EMAX">    -10.00000000</i>
   <i name="EFERMI">      0.00000000</i>
  </separator>
  <separator name="writing" >
   <i type="int" name="NWRITE">     2</i>
   <i type="logical" name="LWAVE"> F  </i>
   <i type="logical" name="LDOWNSAMPLE"> F  </i>
   <i type="logical" name="LCHARG"> F  </i>
   <i type="logical" name="LPARD"> F  </i>
   <i type="logical" name="LVTOT"> F  </i>
   <i type="logical" name="LVHAR"> F  </i>
   <i type="logical" name="LELF"> F  </i>
   <i type="logical" name="LOPTICS"> F  </i>
   <v name="STM">      0.00000000      0.00000000      0.00000000      0.00000000      0.00000000      0.00000000      0.00000000</v>
  </separator>
  <separator name="performance" >
   <i type="int" name="NPAR">     1</i>
   <i type="int" name="NSIM">     4</i>
   <i type="int" name="NBLK">    -1</i>
   <i type="logical" name="LPLANE"> T  </i>
   <i type="logical" name="LSCALAPACK"> T  </i>
   <i type="logical" name="LSCAAWARE"> F  </i>
   <i type="logical" name="LSCALU"> F  </i>
   <i type="logical" name="LASYNC"> F  </i>
   <i type="logical" name="LORBITALREAL"> F  </i>
  </separator>
  <separator name="miscellaneous" >
   <i type="int" name="IDIOT">     3</i>
   <i type="int" name="PHON_NSTRUCT">    -1</i>
   <i type="logical" name="LMUSIC"> F  </i>
   <v name="POMASS">     26.98200000     16.00000000</v>
   <v name="DARWINR">      0.00000000      0.00000000</v>
   <v name="DARWINV">      1.00000000      1.00000000</v>
   <i type="logical" name="LCORR"> T  </i>
  </separator>
  <i type="logical" name="GGA_COMPAT"> T  </i>
  <i type="logical" name="LBERRY"> F  </i>
  <i type="int" name="ICORELEVEL">     0</i>
  <i type="logical" name="LDAU"> F  </i>
  <i type="int" name="I_CONSTRAINED_M">     0</i>
  <separator name="electronic exchange-correlation" >
   <i type="string" name="GGA">--</i>
   <i type="int" name="VOSKOWN">     0</i>
   <i type="logical" name="LHFCALC"> F  </i>
   <i type="string" name="PRECFOCK"></i>
   <i type="logical" name="LSYMGRAD"> F  </i>
   <i type="logical" name="LHFONE"> F  </i>
   <i type="logical" name="LRHFCALC"> F  </i>
   <i type="logical" name="LTHOMAS"> F  </i>
   <i type="logical" name="LMODELHF"> F  </i>
   <i type="logical" name="LFOCKACE"> F  </i>
   <i name="ENCUT4O">     -1.00000000</i>
   <i type="int" name="EXXOEP">     0</i>
   <i type="int" name="FOURORBIT">     0</i>
   <i name="AEXX">      0.00000000</i>
   <i name="HFALPHA">      0.00000000</i>
   <i name="MCALPHA">      0.00000000</i>
   <i name="ALDAX">      1.00000000</i>
   <i name="AGGAX">      1.00000000</i>
   <i name="ALDAC">      1.00000000</i>
   <i name="AGGAC">      1.00000000</i>
   <i type="int" name="NKREDX">     1</i>
   <i type="int" name="NKREDY">     1</i>
   <i type="int" name="NKREDZ">     1</i>
   <i type="logical" name="SHIFTRED"> F  </i>
   <i type="logical" name="ODDONLY"> F  </i>
   <i type="logical" name="EVENONLY"> F  </i>
   <i type="int" name="LMAXFOCK">     0</i>
   <i type="int" name="NMAXFOCKAE">     0</i>
   <i type="logical" name="LFOCKAEDFT"> F  </i>
   <i name="HFSCREEN">      0.00000000</i>
   <i name="HFSCREENC">      0.00000000</i>
   <i type="int" name="NBANDSGWLOW">     0</i>
  </separator>
  <separator name="vdW DFT" >
   <i type="logical" name="LUSE_VDW"> F  </i>
   <i name="Zab_VDW">     -0.84910000</i>
   <i name="PARAM1">      0.12340000</i>
   <i name="PARAM2">      1.00000000</i>
   <i name="PARAM3">      0.00000000</i>
  </separator>
  <separator name="model GW" >
   <i type="int" name="MODEL_GW">     0</i>
   <i name="MODEL_EPS0">     12.07684265</i>
   <i name="MODEL_ALPHA">      1.00000000</i>
  </separator>
  <separator name="linear response parameters" >
   <i type="logical" name="LEPSILON"> F  </i>
   <i type="logical" name="LRPA"> F  </i>
   <i type="logical" name="LNABLA"> F  </i>
   <i type="logical" name="LVEL"> F  </i>
   <i type="int" name="KINTER">     0</i>
   <i name="CSHIFT">      0.10000000</i>
   <i name="OMEGAMAX">     -1.00000000</i>
   <i name="DEG_THRESHOLD">      0.00200000</i>
   <i name="RTIME">     -0.10000000</i>
   <i name="WPLASMAI">      0.00000000</i>
   <v name="DFIELD">      0.00000000      0.00000000      0.00000000</v>
   <v name="WPLASMA">      0.00000000      0.00000000      0.00000000      0.00000000      0.00000000      0.00000000      0.00000000      0.00000000      0.00000000</v>
  </separator>
  <separator name="orbital magnetization" >
   <i type="logical" name="NUCIND"> F  </i>
   <v name="MAGPOS">      0.00000000      0.00000000      0.00000000</v>
   <i type="logical" name="LNICSALL"> T  </i>
   <i type="logical" name="ORBITALMAG"> F  </i>
   <i type="logical" name="LMAGBLOCH"> F  </i>
   <i type="logical" name="LCHIMAG"> F  </i>
   <i type="logical" name="LGAUGE"> T  </i>
   <i type="int" name="MAGATOM">     0</i>
   <v name="MAGDIPOL">      0.00000000      0.00000000      0.00000000</v>
   <v name="AVECCONST">      0.00000000      0.00000000      0.00000000</v>
  </separator>
  <separator name="response functions" >
   <i type="logical" name="LFINITE_TEMPERATURE"> F  </i>
   <i type="logical" name="LADDER"> F  </i>
   <i type="logical" name="LRPAFORCE"> F  </i>
   <i type="logical" name="LFXC"> F  </i>
   <i type="logical" name="LHARTREE"> T  </i>
   <i type="int" name="IBSE">     0</i>
   <v type="int" name="KPOINT">    -1     0     0     0</v>
   <i type="logical" name="LTCTC"> F  </i>
   <i type="logical" name="LTCTE"> F  </i>
   <i type="logical" name="LTETE"> F  </i>
   <i type="logical" name="LTRIPLET"> F  </i>
   <i type="logical" name="LFXCEPS"> F  </i>
   <i type="logical" name="LFXHEG"> F  </i>
   <i type="int" name="NATURALO">     2</i>
   <i type="logical" name="LHOLEGF"> F  </i>
   <i type="logical" name="L2ORDER"> F  </i>
   <i type="logical" name="LDMP1"> F  </i>
   <i type="logical" name="LMP2LT"> F  </i>
   <i type="logical" name="LSMP2LT"> F  </i>
   <i type="logical" name="LGWLF"> F  </i>
   <i name="ENCUTGW">     -2.00000000</i>
   <i name="ENCUTGWSOFT">     -2.00000000</i>
   <i name="ENCUTLF">     -1.00000000</i>
   <i type="logical" name="LESF_SPLINES"> F  </i>
   <i type="int" name="LMAXMP2">    -1</i>
   <i name="SCISSOR">      0.00000000</i>
   <i type="int" name="NOMEGA">     0</i>
   <i type="int" name="NOMEGAR">     0</i>
   <i type="int" name="NBANDSGW">    -1</i>
   <i type="int" name="NBANDSO">    -1</i>
   <i type="int" name="NBANDSV">    -1</i>
   <i type="int" name="NELM">     1</i>
   <i type="int" name="NELMHF">     1</i>
   <i type="int" name="DIM">     3</i>
   <i type="int" name="IESPILON">     4</i>
   <i type="int" name="ANTIRES">     0</i>
   <i name="OMEGAMAX">    -30.00000000</i>
   <i name="OMEGAMIN">    -30.00000000</i>
   <i name="OMEGATL">   -200.00000000</i>
   <i type="int" name="OMEGAGRID">     0</i>
   <i name="CSHIFT">     -0.10000000</i>
   <i type="logical" name="LSELFENERGY"> F  </i>
   <i type="logical" name="LSPECTRAL"> F  </i>
   <i type="logical" name="LSPECTRALGW"> F  </i>
   <i type="logical" name="LSINGLES"> F  </i>
   <i type="logical" name="LFERMIGW"> F  </i>
   <i type="logical" name="ODDONLYGW"> F  </i>
   <i type="logical" name="EVENONLYGW"> F  </i>
   <i type="int" name="NKREDLFX">     1</i>
   <i type="int" name="NKREDLFY">     1</i>
   <i type="int" name="NKREDLFZ">     1</i>
   <i type="int" name="MAXMEM">  2800</i>
   <i type="int" name="TELESCOPE">     0</i>
   <i type="int" name="NTAUPAR">    -1</i>
   <i type="int" name="NOMEGAPAR">    -1</i>
   <i name="DAMP_NEWTON">      0.80000001</i>
   <i name="LAMBDA">      1.00000000</i>
  </separator>
  <separator name="External order field" >
   <i name="OFIELD_KAPPA">      0.00000000</i>
   <v name="OFIELD_K">      0.00000000      0.00000000      0.00000000</v>
   <i name="OFIELD_Q6_NEAR">      0.00000000</i>
   <i name="OFIELD_Q6_FAR">      0.00000000</i>
   <i name="OFIELD_A">      0.00000000</i>
  </separator>
 </parameters>
 <atominfo>
  <atoms>     508 </atoms>
  <types>       2 </types>
  <array name="atoms" >
   <dimension dim="1">ion</dimension>
   <field type="string">element</field>
   <field type="int">atomtype</field>
   <set>
    <rc><c>Al</c><c>   1</c></rc>
    <rc><c>Al</c><c>   1</c></rc>
    <rc><c>Al</c><c>   1</c></rc>
    <rc><c>Al</c><c>   1</c></rc>
    <rc><c>Al</c><c>   1</c></rc>
    <rc><c>Al</c><c>   1</c></rc>
    <rc><c>Al</c><c>   1</c></rc>
    <rc><c>Al</c><c>   1</c></rc>
    <rc><c>Al</c><c>   1</c></rc>
    <rc><c>Al</c><c>   1</c></rc>
    <rc><c>Al</c><c>   1</c></rc>
    <rc><c>Al</c><c>   1</c></rc>
    <rc><c>Al</c><c>   1</c></rc>
    <rc><c>Al</c><c>   1</c></rc>
    <rc><c>Al</c><c>   1</c></rc>
    <rc><c>Al</c><c>   1</c></rc>
    <rc><c>Al</c><c>   1</c></rc>
    <rc><c>Al</c><c>   1</c></rc>
    <rc><c>Al</c><c>   1</c></rc>
    <rc><c>Al</c><c>   1</c></rc>
    <rc><c>Al</c><c>   1</c></rc>
    <rc><c>Al</c><c>   1</c></rc>
    <rc><c>Al</c><c>   1</c></rc>
    <rc><c>Al</c><c>   1</c></rc>
    <rc><c>Al</c><c>   1</c></rc>
    <rc><c>Al</c><c>   1</c></rc>
    <rc><c>Al</c><c>   1</c></rc>
    <rc><c>Al</c><c>   1</c></rc>
    <rc><c>Al</c><c>   1</c></rc>
    <rc><c>Al</c><c>   1</c></rc>
    <rc><c>Al</c><c>   1</c></rc>
    <rc><c>Al</c><c>   1</c></rc>
    <rc><c>Al</c><c>   1</c></rc>
    <rc><c>Al</c><c>   1</c></rc>
    <rc><c>Al</c><c>   1</c></rc>
    <rc><c>Al</c><c>   1</c></rc>
    <rc><c>Al</c><c>   1</c></rc>
    <rc><c>Al</c><c>   1</c></rc>
    <rc><c>Al</c><c>   1</c></rc>
    <rc><c>Al</c><c>   1</c></rc>
    <rc><c>Al</c><c>   1</c></rc>
    <rc><c>Al</c><c>   1</c></rc>
    <rc><c>Al</c><c>   1</c></rc>
    <rc><c>Al</c><c>   1</c></rc>
    <rc><c>Al</c><c>   1</c></rc>
    <rc><c>Al</c><c>   1</c></rc>
    <rc><c>Al</c><c>   1</c></rc>
    <rc><c>Al</c><c>   1</c></rc>
    <rc><c>Al</c><c>   1</c></rc>
    <rc><c>Al</c><c>   1</c></rc>
    <rc><c>Al</c><c>   1</c></rc>
    <rc><c>Al</c><c>   1</c></rc>
    <rc><c>Al</c><c>   1</c></rc>
    <rc><c>Al</c><c>   1</c></rc>
    <rc><c>Al</c><c>   1</c></rc>
    <rc><c>Al</c><c>   1</c></rc>
    <rc><c>Al</c><c>   1</c></rc>
    <rc><c>Al</c><c>   1</c></rc>
    <rc><c>Al</c><c>   1</c></rc>
    <rc><c>Al</c><c>   1</c></rc>
    <rc><c>Al</c><c>   1</c></rc>
    <rc><c>Al</c><c>   1</c></rc>
    <rc><c>Al</c><c>   1</c></rc>
    <rc><c>Al</c><c>   1</c></rc>
    <rc><c>Al</c><c>   1</c></rc>
    <rc><c>Al</c><c>   1</c></rc>
    <rc><c>Al</c><c>   1</c></rc>
    <rc><c>Al</c><c>   1</c></rc>
    <rc><c>Al</c><c>   1</c></rc>
    <rc><c>Al</c><c>   1</c></rc>
    <rc><c>Al</c><c>   1</c></rc>
    <rc><c>Al</c><c>   1</c></rc>
    <rc><c>Al</c><c>   1</c></rc>
    <rc><c>Al</c><c>   1</c></rc>
    <rc><c>Al</c><c>   1</c></rc>
    <rc><c>Al</c><c>   1</c></rc>
    <rc><c>Al</c><c>   1</c></rc>
    <rc><c>Al</c><c>   1</c></rc>
    <rc><c>Al</c><c>   1</c></rc>
    <rc><c>Al</c><c>   1</c></rc>
    <rc><c>Al</c><c>   1</c></rc>
    <rc><c>Al</c><c>   1</c></rc>
    <rc><c>Al</c><c>   1</c></rc>
    <rc><c>Al</c><c>   1</c></rc>
    <rc><c>Al</c><c>   1</c></rc>
    <rc><c>Al</c><c>   1</c></rc>
    <rc><c>Al</c><c>   1</c></rc>
    <rc><c>Al</c><c>   1</c></rc>
    <rc><c>Al</c><c>   1</c></rc>
    <rc><c>Al</c><c>   1</c></rc>
    <rc><c>Al</c><c>   1</c></rc>
    <rc><c>Al</c><c>   1</c></rc>
    <rc><c>Al</c><c>   1</c></rc>
    <rc><c>Al</c><c>   1</c></rc>
    <rc><c>Al</c><c>   1</c></rc>
    <rc><c>Al</c><c>   1</c></rc>
    <rc><c>Al</c><c>   1</c></rc>
    <rc><c>Al</c><c>   1</c></rc>
    <rc><c>Al</c><c>   1</c></rc>
    <rc><c>Al</c><c>   1</c></rc>
    <rc><c>Al</c><c>   1</c></rc>
    <rc><c>Al</c><c>   1</c></rc>
    <rc><c>Al</c><c>   1</c></rc>
    <rc><c>Al</c><c>   1</c></rc>
    <rc><c>Al</c><c>   1</c></rc>
    <rc><c>Al</c><c>   1</c></rc>
    <rc><c>Al</c><c>   1</c></rc>
    <rc><c>Al</c><c>   1</c></rc>
    <rc><c>Al</c><c>   1</c></rc>
    <rc><c>Al</c><c>   1</c></rc>
    <rc><c>Al</c><c>   1</c></rc>
    <rc><c>Al</c><c>   1</c></rc>
    <rc><c>Al</c><c>   1</c></rc>
    <rc><c>Al</c><c>   1</c></rc>
    <rc><c>Al</c><c>   1</c></rc>
    <rc><c>Al</c><c>   1</c></rc>
    <rc><c>Al</c><c>   1</c></rc>
    <rc><c>Al</c><c>   1</c></rc>
    <rc><c>Al</c><c>   1</c></rc>
    <rc><c>Al</c><c>   1</c></rc>
    <rc><c>Al</c><c>   1</c></rc>
    <rc><c>Al</c><c>   1</c></rc>
    <rc><c>Al</c><c>   1</c></rc>
    <rc><c>Al</c><c>   1</c></rc>
    <rc><c>Al</c><c>   1</c></rc>
    <rc><c>Al</c><c>   1</c></rc>
    <rc><c>Al</c><c>   1</c></rc>
    <rc><c>Al</c><c>   1</c></rc>
    <rc><c>Al</c><c>   1</c></rc>
    <rc><c>Al</c><c>   1</c></rc>
    <rc><c>Al</c><c>   1</c></rc>
    <rc><c>Al</c><c>   1</c></rc>
    <rc><c>Al</c><c>   1</c></rc>
    <rc><c>Al</c><c>   1</c></rc>
    <rc><c>Al</c><c>   1</c></rc>
    <rc><c>Al</c><c>   1</c></rc>
    <rc><c>Al</c><c>   1</c></rc>
    <rc><c>Al</c><c>   1</c></rc>
    <rc><c>Al</c><c>   1</c></rc>
    <rc><c>Al</c><c>   1</c></rc>
    <rc><c>Al</c><c>   1</c></rc>
    <rc><c>Al</c><c>   1</c></rc>
    <rc><c>Al</c><c>   1</c></rc>
    <rc><c>Al</c><c>   1</c></rc>
    <rc><c>Al</c><c>   1</c></rc>
    <rc><c>Al</c><c>   1</c></rc>
    <rc><c>Al</c><c>   1</c></rc>
    <rc><c>Al</c><c>   1</c></rc>
    <rc><c>Al</c><c>   1</c></rc>
    <rc><c>Al</c><c>   1</c></rc>
    <rc><c>Al</c><c>   1</c></rc>
    <rc><c>Al</c><c>   1</c></rc>
    <rc><c>Al</c><c>   1</c></rc>
    <rc><c>Al</c><c>   1</c></rc>
    <rc><c>Al</c><c>   1</c></rc>
    <rc><c>Al</c><c>   1</c></rc>
    <rc><c>Al</c><c>   1</c></rc>
    <rc><c>Al</c><c>   1</c></rc>
    <rc><c>Al</c><c>   1</c></rc>
    <rc><c>Al</c><c>   1</c></rc>
    <rc><c>Al</c><c>   1</c></rc>
    <rc><c>Al</c><c>   1</c></rc>
    <rc><c>Al</c><c>   1</c></rc>
    <rc><c>Al</c><c>   1</c></rc>
    <rc><c>Al</c><c>   1</c></rc>
    <rc><c>Al</c><c>   1</c></rc>
    <rc><c>Al</c><c>   1</c></rc>
    <rc><c>Al</c><c>   1</c></rc>
    <rc><c>Al</c><c>   1</c></rc>
    <rc><c>Al</c><c>   1</c></rc>
    <rc><c>Al</c><c>   1</c></rc>
    <rc><c>Al</c><c>   1</c></rc>
    <rc><c>Al</c><c>   1</c></rc>
    <rc><c>Al</c><c>   1</c></rc>
    <rc><c>Al</c><c>   1</c></rc>
    <rc><c>Al</c><c>   1</c></rc>
    <rc><c>Al</c><c>   1</c></rc>
    <rc><c>Al</c><c>   1</c></rc>
    <rc><c>Al</c><c>   1</c></rc>
    <rc><c>Al</c><c>   1</c></rc>
    <rc><c>Al</c><c>   1</c></rc>
    <rc><c>Al</c><c>   1</c></rc>
    <rc><c>Al</c><c>   1</c></rc>
    <rc><c>Al</c><c>   1</c></rc>
    <rc><c>Al</c><c>   1</c></rc>
    <rc><c>Al</c><c>   1</c></rc>
    <rc><c>Al</c><c>   1</c></rc>
    <rc><c>Al</c><c>   1</c></rc>
    <rc><c>Al</c><c>   1</c></rc>
    <rc><c>Al</c><c>   1</c></rc>
    <rc><c>Al</c><c>   1</c></rc>
    <rc><c>Al</c><c>   1</c></rc>
    <rc><c>Al</c><c>   1</c></rc>
    <rc><c>Al</c><c>   1</c></rc>
    <rc><c>Al</c><c>   1</c></rc>
    <rc><c>Al</c><c>   1</c></rc>
    <rc><c>Al</c><c>   1</c></rc>
    <rc><c>Al</c><c>   1</c></rc>
    <rc><c>Al</c><c>   1</c></rc>
    <rc><c>Al</c><c>   1</c></rc>
    <rc><c>Al</c><c>   1</c></rc>
    <rc><c>Al</c><c>   1</c></rc>
    <rc><c>Al</c><c>   1</c></rc>
    <rc><c>Al</c><c>   1</c></rc>
    <rc><c>Al</c><c>   1</c></rc>
    <rc><c>Al</c><c>   1</c></rc>
    <rc><c>Al</c><c>   1</c></rc>
    <rc><c>Al</c><c>   1</c></rc>
    <rc><c>Al</c><c>   1</c></rc>
    <rc><c>Al</c><c>   1</c></rc>
    <rc><c>Al</c><c>   1</c></rc>
    <rc><c>Al</c><c>   1</c></rc>
    <rc><c>Al</c><c>   1</c></rc>
    <rc><c>Al</c><c>   1</c></rc>
    <rc><c>Al</c><c>   1</c></rc>
    <rc><c>Al</c><c>   1</c></rc>
    <rc><c>Al</c><c>   1</c></rc>
    <rc><c>Al</c><c>   1</c></rc>
    <rc><c>Al</c><c>   1</c></rc>
    <rc><c>Al</c><c>   1</c></rc>
    <rc><c>Al</c><c>   1</c></rc>
    <rc><c>Al</c><c>   1</c></rc>
    <rc><c>Al</c><c>   1</c></rc>
    <rc><c>Al</c><c>   1</c></rc>
    <rc><c>Al</c><c>   1</c></rc>
    <rc><c>Al</c><c>   1</c></rc>
    <rc><c>Al</c><c>   1</c></rc>
    <rc><c>Al</c><c>   1</c></rc>
    <rc><c>Al</c><c>   1</c></rc>
    <rc><c>Al</c><c>   1</c></rc>
    <rc><c>Al</c><c>   1</c></rc>
    <rc><c>Al</c><c>   1</c></rc>
    <rc><c>Al</c><c>   1</c></rc>
    <rc><c>Al</c><c>   1</c></rc>
    <rc><c>Al</c><c>   1</c></rc>
    <rc><c>Al</c><c>   1</c></rc>
    <rc><c>Al</c><c>   1</c></rc>
    <rc><c>Al</c><c>   1</c></rc>
    <rc><c>Al</c><c>   1</c></rc>
    <rc><c>Al</c><c>   1</c></rc>
    <rc><c>Al</c><c>   1</c></rc>
    <rc><c>Al</c><c>   1</c></rc>
    <rc><c>Al</c><c>   1</c></rc>
    <rc><c>Al</c><c>   1</c></rc>
    <rc><c>Al</c><c>   1</c></rc>
    <rc><c>Al</c><c>   1</c></rc>
    <rc><c>Al</c><c>   1</c></rc>
    <rc><c>Al</c><c>   1</c></rc>
    <rc><c>Al</c><c>   1</c></rc>
    <rc><c>Al</c><c>   1</c></rc>
    <rc><c>Al</c><c>   1</c></rc>
    <rc><c>Al</c><c>   1</c></rc>
    <rc><c>O </c><c>   2</c></rc>
    <rc><c>O </c><c>   2</c></rc>
    <rc><c>O </c><c>   2</c></rc>
    <rc><c>O </c><c>   2</c></rc>
    <rc><c>O </c><c>   2</c></rc>
    <rc><c>O </c><c>   2</c></rc>
    <rc><c>O </c><c>   2</c></rc>
    <rc><c>O </c><c>   2</c></rc>
    <rc><c>O </c><c>   2</c></rc>
    <rc><c>O </c><c>   2</c></rc>
    <rc><c>O </c><c>   2</c></rc>
    <rc><c>O </c><c>   2</c></rc>
    <rc><c>O </c><c>   2</c></rc>
    <rc><c>O </c><c>   2</c></rc>
    <rc><c>O </c><c>   2</c></rc>
    <rc><c>O </c><c>   2</c></rc>
    <rc><c>O </c><c>   2</c></rc>
    <rc><c>O </c><c>   2</c></rc>
    <rc><c>O </c><c>   2</c></rc>
    <rc><c>O </c><c>   2</c></rc>
    <rc><c>O </c><c>   2</c></rc>
    <rc><c>O </c><c>   2</c></rc>
    <rc><c>O </c><c>   2</c></rc>
    <rc><c>O </c><c>   2</c></rc>
    <rc><c>O </c><c>   2</c></rc>
    <rc><c>O </c><c>   2</c></rc>
    <rc><c>O </c><c>   2</c></rc>
    <rc><c>O </c><c>   2</c></rc>
    <rc><c>O </c><c>   2</c></rc>
    <rc><c>O </c><c>   2</c></rc>
    <rc><c>O </c><c>   2</c></rc>
    <rc><c>O </c><c>   2</c></rc>
    <rc><c>O </c><c>   2</c></rc>
    <rc><c>O </c><c>   2</c></rc>
    <rc><c>O </c><c>   2</c></rc>
    <rc><c>O </c><c>   2</c></rc>
    <rc><c>O </c><c>   2</c></rc>
    <rc><c>O </c><c>   2</c></rc>
    <rc><c>O </c><c>   2</c></rc>
    <rc><c>O </c><c>   2</c></rc>
    <rc><c>O </c><c>   2</c></rc>
    <rc><c>O </c><c>   2</c></rc>
    <rc><c>O </c><c>   2</c></rc>
    <rc><c>O </c><c>   2</c></rc>
    <rc><c>O </c><c>   2</c></rc>
    <rc><c>O </c><c>   2</c></rc>
    <rc><c>O </c><c>   2</c></rc>
    <rc><c>O </c><c>   2</c></rc>
    <rc><c>O </c><c>   2</c></rc>
    <rc><c>O </c><c>   2</c></rc>
    <rc><c>O </c><c>   2</c></rc>
    <rc><c>O </c><c>   2</c></rc>
    <rc><c>O </c><c>   2</c></rc>
    <rc><c>O </c><c>   2</c></rc>
    <rc><c>O </c><c>   2</c></rc>
    <rc><c>O </c><c>   2</c></rc>
    <rc><c>O </c><c>   2</c></rc>
    <rc><c>O </c><c>   2</c></rc>
    <rc><c>O </c><c>   2</c></rc>
    <rc><c>O </c><c>   2</c></rc>
    <rc><c>O </c><c>   2</c></rc>
    <rc><c>O </c><c>   2</c></rc>
    <rc><c>O </c><c>   2</c></rc>
    <rc><c>O </c><c>   2</c></rc>
    <rc><c>O </c><c>   2</c></rc>
    <rc><c>O </c><c>   2</c></rc>
    <rc><c>O </c><c>   2</c></rc>
    <rc><c>O </c><c>   2</c></rc>
    <rc><c>O </c><c>   2</c></rc>
    <rc><c>O </c><c>   2</c></rc>
    <rc><c>O </c><c>   2</c></rc>
    <rc><c>O </c><c>   2</c></rc>
    <rc><c>O </c><c>   2</c></rc>
    <rc><c>O </c><c>   2</c></rc>
    <rc><c>O </c><c>   2</c></rc>
    <rc><c>O </c><c>   2</c></rc>
    <rc><c>O </c><c>   2</c></rc>
    <rc><c>O </c><c>   2</c></rc>
    <rc><c>O </c><c>   2</c></rc>
    <rc><c>O </c><c>   2</c></rc>
    <rc><c>O </c><c>   2</c></rc>
    <rc><c>O </c><c>   2</c></rc>
    <rc><c>O </c><c>   2</c></rc>
    <rc><c>O </c><c>   2</c></rc>
    <rc><c>O </c><c>   2</c></rc>
    <rc><c>O </c><c>   2</c></rc>
    <rc><c>O </c><c>   2</c></rc>
    <rc><c>O </c><c>   2</c></rc>
    <rc><c>O </c><c>   2</c></rc>
    <rc><c>O </c><c>   2</c></rc>
    <rc><c>O </c><c>   2</c></rc>
    <rc><c>O </c><c>   2</c></rc>
    <rc><c>O </c><c>   2</c></rc>
    <rc><c>O </c><c>   2</c></rc>
    <rc><c>O </c><c>   2</c></rc>
    <rc><c>O </c><c>   2</c></rc>
    <rc><c>O </c><c>   2</c></rc>
    <rc><c>O </c><c>   2</c></rc>
    <rc><c>O </c><c>   2</c></rc>
    <rc><c>O </c><c>   2</c></rc>
    <rc><c>O </c><c>   2</c></rc>
    <rc><c>O </c><c>   2</c></rc>
    <rc><c>O </c><c>   2</c></rc>
    <rc><c>O </c><c>   2</c></rc>
    <rc><c>O </c><c>   2</c></rc>
    <rc><c>O </c><c>   2</c></rc>
    <rc><c>O </c><c>   2</c></rc>
    <rc><c>O </c><c>   2</c></rc>
    <rc><c>O </c><c>   2</c></rc>
    <rc><c>O </c><c>   2</c></rc>
    <rc><c>O </c><c>   2</c></rc>
    <rc><c>O </c><c>   2</c></rc>
    <rc><c>O </c><c>   2</c></rc>
    <rc><c>O </c><c>   2</c></rc>
    <rc><c>O </c><c>   2</c></rc>
    <rc><c>O </c><c>   2</c></rc>
    <rc><c>O </c><c>   2</c></rc>
    <rc><c>O </c><c>   2</c></rc>
    <rc><c>O </c><c>   2</c></rc>
    <rc><c>O </c><c>   2</c></rc>
    <rc><c>O </c><c>   2</c></rc>
    <rc><c>O </c><c>   2</c></rc>
    <rc><c>O </c><c>   2</c></rc>
    <rc><c>O </c><c>   2</c></rc>
    <rc><c>O </c><c>   2</c></rc>
    <rc><c>O </c><c>   2</c></rc>
    <rc><c>O </c><c>   2</c></rc>
    <rc><c>O </c><c>   2</c></rc>
    <rc><c>O </c><c>   2</c></rc>
    <rc><c>O </c><c>   2</c></rc>
    <rc><c>O </c><c>   2</c></rc>
    <rc><c>O </c><c>   2</c></rc>
    <rc><c>O </c><c>   2</c></rc>
    <rc><c>O </c><c>   2</c></rc>
    <rc><c>O </c><c>   2</c></rc>
    <rc><c>O </c><c>   2</c></rc>
    <rc><c>O </c><c>   2</c></rc>
    <rc><c>O </c><c>   2</c></rc>
    <rc><c>O </c><c>   2</c></rc>
    <rc><c>O </c><c>   2</c></rc>
    <rc><c>O </c><c>   2</c></rc>
    <rc><c>O </c><c>   2</c></rc>
    <rc><c>O </c><c>   2</c></rc>
    <rc><c>O </c><c>   2</c></rc>
    <rc><c>O </c><c>   2</c></rc>
    <rc><c>O </c><c>   2</c></rc>
    <rc><c>O </c><c>   2</c></rc>
    <rc><c>O </c><c>   2</c></rc>
    <rc><c>O </c><c>   2</c></rc>
    <rc><c>O </c><c>   2</c></rc>
    <rc><c>O </c><c>   2</c></rc>
    <rc><c>O </c><c>   2</c></rc>
    <rc><c>O </c><c>   2</c></rc>
    <rc><c>O </c><c>   2</c></rc>
    <rc><c>O </c><c>   2</c></rc>
    <rc><c>O </c><c>   2</c></rc>
    <rc><c>O </c><c>   2</c></rc>
    <rc><c>O </c><c>   2</c></rc>
    <rc><c>O </c><c>   2</c></rc>
    <rc><c>O </c><c>   2</c></rc>
    <rc><c>O </c><c>   2</c></rc>
    <rc><c>O </c><c>   2</c></rc>
    <rc><c>O </c><c>   2</c></rc>
    <rc><c>O </c><c>   2</c></rc>
    <rc><c>O </c><c>   2</c></rc>
    <rc><c>O </c><c>   2</c></rc>
    <rc><c>O </c><c>   2</c></rc>
    <rc><c>O </c><c>   2</c></rc>
    <rc><c>O </c><c>   2</c></rc>
    <rc><c>O </c><c>   2</c></rc>
    <rc><c>O </c><c>   2</c></rc>
    <rc><c>O </c><c>   2</c></rc>
    <rc><c>O </c><c>   2</c></rc>
    <rc><c>O </c><c>   2</c></rc>
    <rc><c>O </c><c>   2</c></rc>
    <rc><c>O </c><c>   2</c></rc>
    <rc><c>O </c><c>   2</c></rc>
    <rc><c>O </c><c>   2</c></rc>
    <rc><c>O </c><c>   2</c></rc>
    <rc><c>O </c><c>   2</c></rc>
    <rc><c>O </c><c>   2</c></rc>
    <rc><c>O </c><c>   2</c></rc>
    <rc><c>O </c><c>   2</c></rc>
    <rc><c>O </c><c>   2</c></rc>
    <rc><c>O </c><c>   2</c></rc>
    <rc><c>O </c><c>   2</c></rc>
    <rc><c>O </c><c>   2</c></rc>
    <rc><c>O </c><c>   2</c></rc>
    <rc><c>O </c><c>   2</c></rc>
    <rc><c>O </c><c>   2</c></rc>
    <rc><c>O </c><c>   2</c></rc>
    <rc><c>O </c><c>   2</c></rc>
    <rc><c>O </c><c>   2</c></rc>
    <rc><c>O </c><c>   2</c></rc>
    <rc><c>O </c><c>   2</c></rc>
    <rc><c>O </c><c>   2</c></rc>
    <rc><c>O </c><c>   2</c></rc>
    <rc><c>O </c><c>   2</c></rc>
    <rc><c>O </c><c>   2</c></rc>
    <rc><c>O </c><c>   2</c></rc>
    <rc><c>O </c><c>   2</c></rc>
    <rc><c>O </c><c>   2</c></rc>
    <rc><c>O </c><c>   2</c></rc>
    <rc><c>O </c><c>   2</c></rc>
    <rc><c>O </c><c>   2</c></rc>
    <rc><c>O </c><c>   2</c></rc>
    <rc><c>O </c><c>   2</c></rc>
    <rc><c>O </c><c>   2</c></rc>
    <rc><c>O </c><c>   2</c></rc>
    <rc><c>O </c><c>   2</c></rc>
    <rc><c>O </c><c>   2</c></rc>
    <rc><c>O </c><c>   2</c></rc>
    <rc><c>O </c><c>   2</c></rc>
    <rc><c>O </c><c>   2</c></rc>
    <rc><c>O </c><c>   2</c></rc>
    <rc><c>O </c><c>   2</c></rc>
    <rc><c>O </c><c>   2</c></rc>
    <rc><c>O </c><c>   2</c></rc>
    <rc><c>O </c><c>   2</c></rc>
    <rc><c>O </c><c>   2</c></rc>
    <rc><c>O </c><c>   2</c></rc>
    <rc><c>O </c><c>   2</c></rc>
    <rc><c>O </c><c>   2</c></rc>
    <rc><c>O </c><c>   2</c></rc>
    <rc><c>O </c><c>   2</c></rc>
    <rc><c>O </c><c>   2</c></rc>
    <rc><c>O </c><c>   2</c></rc>
    <rc><c>O </c><c>   2</c></rc>
    <rc><c>O </c><c>   2</c></rc>
    <rc><c>O </c><c>   2</c></rc>
    <rc><c>O </c><c>   2</c></rc>
    <rc><c>O </c><c>   2</c></rc>
    <rc><c>O </c><c>   2</c></rc>
    <rc><c>O </c><c>   2</c></rc>
    <rc><c>O </c><c>   2</c></rc>
    <rc><c>O </c><c>   2</c></rc>
    <rc><c>O </c><c>   2</c></rc>
    <rc><c>O </c><c>   2</c></rc>
    <rc><c>O </c><c>   2</c></rc>
    <rc><c>O </c><c>   2</c></rc>
    <rc><c>O </c><c>   2</c></rc>
    <rc><c>O </c><c>   2</c></rc>
    <rc><c>O </c><c>   2</c></rc>
    <rc><c>O </c><c>   2</c></rc>
    <rc><c>O </c><c>   2</c></rc>
    <rc><c>O </c><c>   2</c></rc>
    <rc><c>O </c><c>   2</c></rc>
    <rc><c>O </c><c>   2</c></rc>
    <rc><c>O </c><c>   2</c></rc>
    <rc><c>O </c><c>   2</c></rc>
    <rc><c>O </c><c>   2</c></rc>
    <rc><c>O </c><c>   2</c></rc>
    <rc><c>O </c><c>   2</c></rc>
    <rc><c>O </c><c>   2</c></rc>
    <rc><c>O </c><c>   2</c></rc>
    <rc><c>O </c><c>   2</c></rc>
   </set>
  </array>
  <array name="atomtypes" >
   <dimension dim="1">type</dimension>
   <field type="int">atomspertype</field>
   <field type="string">element</field>
   <field>mass</field>
   <field>valence</field>
   <field type="string">pseudopotential</field>
   <set>
    <rc><c> 252</c><c>Al</c><c>     26.98200000</c><c>      3.00000000</c><c>  PAW Al_GW 19Mar2012                   </c></rc>
    <rc><c> 256</c><c>O </c><c>     16.00000000</c><c>      6.00000000</c><c>  PAW O_GW 19Mar2012                    </c></rc>
   </set>
  </array>
 </atominfo>
 <structure name="initialpos" >
  <crystal>
   <varray name="basis" >
    <v>      17.18057251       0.00000000       0.00000000 </v>
    <v>       8.59028725      14.87881167       0.00000000 </v>
    <v>       0.00000000       0.00000000      40.00000000 </v>
   </varray>
   <i name="volume">  10225.06011237 </i>
   <varray name="rec_basis" >
    <v>       0.05820528      -0.03360484       0.00000000 </v>
    <v>       0.00000000       0.06720967       0.00000000 </v>
    <v>       0.00000000       0.00000000       0.02500000 </v>
   </varray>
  </crystal>
  <varray name="positions" >
   <v>       0.44444442       0.44444445       0.05844950 </v>
   <v>       0.44444442       0.77777779       0.05844950 </v>
   <v>       0.44444439       0.11111116       0.05844950 </v>
   <v>       0.77777773       0.44444445       0.05844950 </v>
   <v>       0.77777779       0.77777779       0.05844950 </v>
   <v>       0.77777773       0.11111116       0.05844950 </v>
   <v>       0.11111105       0.44444445       0.05844950 </v>
   <v>       0.11111116       0.77777779       0.05844950 </v>
   <v>       0.11111105       0.11111116       0.05844950 </v>
   <v>       0.55555552       0.55555558       0.11689901 </v>
   <v>       0.55555552       0.88888890       0.11689901 </v>
   <v>       0.55555552       0.22222233       0.11689901 </v>
   <v>       0.88888890       0.55555558       0.11689901 </v>
   <v>       0.88888884       0.88888890       0.11689901 </v>
   <v>       0.88888890       0.22222233       0.11689901 </v>
   <v>       0.22222221       0.55555558       0.11689901 </v>
   <v>       0.22222221       0.88888890       0.11689901 </v>
   <v>       0.22222221       0.22222233       0.11689901 </v>
   <v>       0.66666663       0.66666663       0.17534850 </v>
   <v>       0.66666669       0.00000000       0.17534850 </v>
   <v>       0.66666663       0.33333325       0.17534850 </v>
   <v>       0.00000000       0.66666663       0.17534850 </v>
   <v>       0.00000000       0.00000000       0.17534850 </v>
   <v>       0.00000000       0.33333325       0.17534850 </v>
   <v>       0.33333337       0.66666663       0.17534850 </v>
   <v>       0.33333337       0.00000000       0.17534850 </v>
   <v>       0.33333325       0.33333325       0.17534850 </v>
   <v>       0.77777779       0.77777779       0.23379801 </v>
   <v>       0.77777773       0.11111116       0.23379801 </v>
   <v>       0.77777779       0.44444442       0.23379801 </v>
   <v>       0.11111116       0.77777779       0.23379801 </v>
   <v>       0.11111105       0.11111116       0.23379801 </v>
   <v>       0.11111116       0.44444442       0.23379801 </v>
   <v>       0.44444442       0.77777779       0.23379801 </v>
   <v>       0.44444430       0.11111116       0.23379801 </v>
   <v>       0.44444442       0.44444442       0.23379801 </v>
   <v>       0.88888884       0.88888890       0.29224748 </v>
   <v>       0.88888890       0.22222233       0.29224748 </v>
   <v>       0.88888884       0.55555558       0.29224748 </v>
   <v>       0.22222221       0.88888890       0.29224748 </v>
   <v>       0.22222221       0.22222233       0.29224748 </v>
   <v>       0.22222209       0.55555558       0.29224748 </v>
   <v>       0.55555546       0.88888890       0.29224748 </v>
   <v>       0.55555546       0.22222233       0.29224748 </v>
   <v>       0.55555558       0.55555558       0.29224748 </v>
   <v>       0.00000000       0.00000000       0.35069700 </v>
   <v>       0.00000000       0.33333325       0.35069700 </v>
   <v>       0.00000000       0.66666663       0.35069700 </v>
   <v>       0.33333337       0.00000000       0.35069700 </v>
   <v>       0.33333325       0.33333325       0.35069700 </v>
   <v>       0.33333325       0.66666663       0.35069700 </v>
   <v>       0.66666663       0.00000000       0.35069700 </v>
   <v>       0.66666675       0.33333325       0.35069700 </v>
   <v>       0.66666675       0.66666663       0.35069700 </v>
   <v>       0.11111105       0.11111116       0.40914649 </v>
   <v>       0.11111116       0.44444442       0.40914649 </v>
   <v>       0.11111105       0.77777779       0.40914649 </v>
   <v>       0.44444430       0.11111116       0.40914649 </v>
   <v>       0.44444442       0.44444442       0.40914649 </v>
   <v>       0.44444442       0.77777779       0.40914649 </v>
   <v>       0.77777779       0.11111116       0.40914649 </v>
   <v>       0.77777791       0.44444442       0.40914649 </v>
   <v>       0.77777767       0.77777779       0.40914649 </v>
   <v>       0.27777776       0.27777779       0.05844950 </v>
   <v>       0.27777776       0.61111116       0.05844950 </v>
   <v>       0.27777779       0.94444448       0.05844950 </v>
   <v>       0.61111110       0.27777779       0.05844950 </v>
   <v>       0.61111110       0.61111116       0.05844950 </v>
   <v>       0.61111110       0.94444448       0.05844950 </v>
   <v>       0.94444442       0.27777779       0.05844950 </v>
   <v>       0.94444448       0.61111116       0.05844950 </v>
   <v>       0.94444442       0.94444448       0.05844950 </v>
   <v>       0.38888890       0.38888890       0.11689901 </v>
   <v>       0.38888890       0.72222221       0.11689901 </v>
   <v>       0.38888893       0.05555558       0.11689901 </v>
   <v>       0.72222221       0.38888890       0.11689901 </v>
   <v>       0.72222221       0.72222221       0.11689901 </v>
   <v>       0.72222227       0.05555558       0.11689901 </v>
   <v>       0.05555558       0.38888890       0.11689901 </v>
   <v>       0.05555558       0.72222221       0.11689901 </v>
   <v>       0.05555546       0.05555558       0.11689901 </v>
   <v>       0.50000000       0.50000000       0.17534850 </v>
   <v>       0.50000006       0.83333331       0.17534850 </v>
   <v>       0.49999997       0.16666675       0.17534850 </v>
   <v>       0.83333331       0.50000000       0.17534850 </v>
   <v>       0.83333337       0.83333331       0.17534850 </v>
   <v>       0.83333331       0.16666675       0.17534850 </v>
   <v>       0.16666663       0.50000000       0.17534850 </v>
   <v>       0.16666663       0.83333331       0.17534850 </v>
   <v>       0.16666663       0.16666675       0.17534850 </v>
   <v>       0.61111110       0.61111116       0.23379801 </v>
   <v>       0.61111110       0.94444448       0.23379801 </v>
   <v>       0.61111116       0.27777779       0.23379801 </v>
   <v>       0.94444448       0.61111116       0.23379801 </v>
   <v>       0.94444442       0.94444448       0.23379801 </v>
   <v>       0.94444442       0.27777779       0.23379801 </v>
   <v>       0.27777767       0.61111116       0.23379801 </v>
   <v>       0.27777779       0.94444448       0.23379801 </v>
   <v>       0.27777779       0.27777779       0.23379801 </v>
   <v>       0.72222221       0.72222221       0.29224748 </v>
   <v>       0.72222227       0.05555558       0.29224748 </v>
   <v>       0.72222221       0.38888884       0.29224748 </v>
   <v>       0.05555558       0.72222221       0.29224748 </v>
   <v>       0.05555546       0.05555558       0.29224748 </v>
   <v>       0.05555558       0.38888884       0.29224748 </v>
   <v>       0.38888895       0.72222221       0.29224748 </v>
   <v>       0.38888884       0.05555558       0.29224748 </v>
   <v>       0.38888895       0.38888884       0.29224748 </v>
   <v>       0.83333337       0.83333331       0.35069700 </v>
   <v>       0.83333331       0.16666675       0.35069700 </v>
   <v>       0.83333325       0.50000000       0.35069700 </v>
   <v>       0.16666663       0.83333331       0.35069700 </v>
   <v>       0.16666663       0.16666675       0.35069700 </v>
   <v>       0.16666663       0.50000000       0.35069700 </v>
   <v>       0.50000000       0.83333331       0.35069700 </v>
   <v>       0.50000000       0.16666675       0.35069700 </v>
   <v>       0.50000012       0.50000000       0.35069700 </v>
   <v>       0.94444442       0.94444448       0.40914649 </v>
   <v>       0.94444442       0.27777779       0.40914649 </v>
   <v>       0.94444448       0.61111105       0.40914649 </v>
   <v>       0.27777779       0.94444448       0.40914649 </v>
   <v>       0.27777779       0.27777779       0.40914649 </v>
   <v>       0.27777779       0.61111105       0.40914649 </v>
   <v>       0.61111116       0.94444448       0.40914649 </v>
   <v>       0.61111128       0.27777779       0.40914649 </v>
   <v>       0.61111105       0.61111105       0.40914649 </v>
   <v>       0.27777776       0.44444445       0.05844950 </v>
   <v>       0.27777773       0.77777779       0.05844950 </v>
   <v>       0.27777776       0.11111116       0.05844950 </v>
   <v>       0.61111110       0.44444445       0.05844950 </v>
   <v>       0.61111105       0.77777779       0.05844950 </v>
   <v>       0.61111110       0.11111116       0.05844950 </v>
   <v>       0.94444448       0.44444445       0.05844950 </v>
   <v>       0.94444442       0.77777779       0.05844950 </v>
   <v>       0.94444448       0.11111116       0.05844950 </v>
   <v>       0.38888887       0.55555558       0.11689901 </v>
   <v>       0.38888887       0.88888890       0.11689901 </v>
   <v>       0.38888881       0.22222233       0.11689901 </v>
   <v>       0.72222215       0.55555558       0.11689901 </v>
   <v>       0.72222221       0.88888890       0.11689901 </v>
   <v>       0.72222215       0.22222233       0.11689901 </v>
   <v>       0.05555546       0.55555558       0.11689901 </v>
   <v>       0.05555558       0.88888890       0.11689901 </v>
   <v>       0.05555546       0.22222233       0.11689901 </v>
   <v>       0.50000000       0.66666663       0.17534850 </v>
   <v>       0.49999994       0.00000000       0.17534850 </v>
   <v>       0.50000000       0.33333325       0.17534850 </v>
   <v>       0.83333337       0.66666663       0.17534850 </v>
   <v>       0.83333331       0.00000000       0.17534850 </v>
   <v>       0.83333337       0.33333325       0.17534850 </v>
   <v>       0.16666675       0.66666663       0.17534850 </v>
   <v>       0.16666663       0.00000000       0.17534850 </v>
   <v>       0.16666675       0.33333325       0.17534850 </v>
   <v>       0.61111105       0.77777779       0.23379801 </v>
   <v>       0.61111110       0.11111116       0.23379801 </v>
   <v>       0.61111105       0.44444442       0.23379801 </v>
   <v>       0.94444442       0.77777779       0.23379801 </v>
   <v>       0.94444448       0.11111116       0.23379801 </v>
   <v>       0.94444442       0.44444442       0.23379801 </v>
   <v>       0.27777779       0.77777779       0.23379801 </v>
   <v>       0.27777779       0.11111116       0.23379801 </v>
   <v>       0.27777767       0.44444442       0.23379801 </v>
   <v>       0.72222221       0.88888890       0.29224748 </v>
   <v>       0.72222215       0.22222233       0.29224748 </v>
   <v>       0.72222221       0.55555558       0.29224748 </v>
   <v>       0.05555558       0.88888890       0.29224748 </v>
   <v>       0.05555546       0.22222233       0.29224748 </v>
   <v>       0.05555558       0.55555558       0.29224748 </v>
   <v>       0.38888895       0.88888890       0.29224748 </v>
   <v>       0.38888872       0.22222233       0.29224748 </v>
   <v>       0.38888884       0.55555558       0.29224748 </v>
   <v>       0.83333331       0.00000000       0.35069700 </v>
   <v>       0.83333337       0.33333325       0.35069700 </v>
   <v>       0.83333331       0.66666663       0.35069700 </v>
   <v>       0.16666663       0.00000000       0.35069700 </v>
   <v>       0.16666675       0.33333325       0.35069700 </v>
   <v>       0.16666663       0.66666663       0.35069700 </v>
   <v>       0.49999988       0.00000000       0.35069700 </v>
   <v>       0.50000000       0.33333325       0.35069700 </v>
   <v>       0.50000000       0.66666663       0.35069700 </v>
   <v>       0.94444448       0.11111116       0.40914649 </v>
   <v>       0.94444442       0.44444442       0.40914649 </v>
   <v>       0.94444448       0.77777779       0.40914649 </v>
   <v>       0.27777779       0.11111116       0.40914649 </v>
   <v>       0.27777767       0.44444442       0.40914649 </v>
   <v>       0.27777767       0.77777779       0.40914649 </v>
   <v>       0.61111105       0.11111116       0.40914649 </v>
   <v>       0.61111116       0.44444442       0.40914649 </v>
   <v>       0.61111116       0.77777779       0.40914649 </v>
   <v>       0.44444445       0.27777779       0.05844950 </v>
   <v>       0.44444445       0.61111116       0.05844950 </v>
   <v>       0.44444445       0.94444448       0.05844950 </v>
   <v>       0.77777779       0.27777779       0.05844950 </v>
   <v>       0.77777773       0.61111116       0.05844950 </v>
   <v>       0.77777779       0.94444448       0.05844950 </v>
   <v>       0.11111116       0.27777779       0.05844950 </v>
   <v>       0.11111105       0.61111116       0.05844950 </v>
   <v>       0.11111105       0.94444448       0.05844950 </v>
   <v>       0.55555558       0.38888890       0.11689901 </v>
   <v>       0.55555558       0.72222221       0.11689901 </v>
   <v>       0.55555552       0.05555558       0.11689901 </v>
   <v>       0.88888884       0.38888890       0.11689901 </v>
   <v>       0.88888895       0.72222221       0.11689901 </v>
   <v>       0.88888890       0.05555558       0.11689901 </v>
   <v>       0.22222221       0.38888890       0.11689901 </v>
   <v>       0.22222221       0.72222221       0.11689901 </v>
   <v>       0.22222221       0.05555558       0.11689901 </v>
   <v>       0.66666669       0.50000000       0.17534850 </v>
   <v>       0.66666663       0.83333331       0.17534850 </v>
   <v>       0.66666669       0.16666675       0.17534850 </v>
   <v>       0.00000000       0.50000000       0.17534850 </v>
   <v>       0.00000000       0.83333331       0.17534850 </v>
   <v>       0.00000000       0.16666675       0.17534850 </v>
   <v>       0.33333325       0.50000000       0.17534850 </v>
   <v>       0.33333337       0.83333331       0.17534850 </v>
   <v>       0.33333325       0.16666675       0.17534850 </v>
   <v>       0.77777773       0.61111116       0.23379801 </v>
   <v>       0.77777779       0.94444448       0.23379801 </v>
   <v>       0.77777779       0.27777779       0.23379801 </v>
   <v>       0.11111105       0.61111116       0.23379801 </v>
   <v>       0.11111105       0.94444448       0.23379801 </v>
   <v>       0.11111116       0.27777779       0.23379801 </v>
   <v>       0.44444442       0.61111116       0.23379801 </v>
   <v>       0.44444442       0.94444448       0.23379801 </v>
   <v>       0.44444454       0.27777779       0.23379801 </v>
   <v>       0.88888895       0.72222221       0.29224748 </v>
   <v>       0.88888890       0.05555558       0.29224748 </v>
   <v>       0.88888884       0.38888884       0.29224748 </v>
   <v>       0.22222221       0.72222221       0.29224748 </v>
   <v>       0.22222221       0.05555558       0.29224748 </v>
   <v>       0.22222221       0.38888884       0.29224748 </v>
   <v>       0.55555546       0.72222221       0.29224748 </v>
   <v>       0.55555558       0.05555558       0.29224748 </v>
   <v>       0.55555570       0.38888884       0.29224748 </v>
   <v>       0.00000000       0.83333331       0.35069700 </v>
   <v>       0.00000000       0.16666675       0.35069700 </v>
   <v>       0.00000000       0.50000000       0.35069700 </v>
   <v>       0.33333337       0.83333331       0.35069700 </v>
   <v>       0.33333325       0.16666675       0.35069700 </v>
   <v>       0.33333337       0.50000000       0.35069700 </v>
   <v>       0.66666675       0.83333331       0.35069700 </v>
   <v>       0.66666675       0.16666675       0.35069700 </v>
   <v>       0.66666663       0.50000000       0.35069700 </v>
   <v>       0.11111105       0.94444448       0.40914649 </v>
   <v>       0.11111116       0.27777779       0.40914649 </v>
   <v>       0.11111116       0.61111105       0.40914649 </v>
   <v>       0.44444442       0.94444448       0.40914649 </v>
   <v>       0.44444454       0.27777779       0.40914649 </v>
   <v>       0.44444454       0.61111105       0.40914649 </v>
   <v>       0.77777791       0.94444448       0.40914649 </v>
   <v>       0.77777779       0.27777779       0.40914649 </v>
   <v>       0.77777779       0.61111105       0.40914649 </v>
   <v>       0.00000000       0.00000000       0.44414649 </v>
   <v>       0.00000000       0.00000000       0.47414649 </v>
   <v>       0.00000000       0.00000000       0.50414649 </v>
   <v>       0.00000000       0.00000000       0.53414649 </v>
   <v>       0.00000000       0.12500000       0.44414649 </v>
   <v>       0.00000000       0.12500000       0.47414649 </v>
   <v>       0.00000000       0.12500000       0.50414649 </v>
   <v>       0.00000000       0.12500000       0.53414649 </v>
   <v>       0.00000000       0.25000000       0.44414649 </v>
   <v>       0.00000000       0.25000000       0.47414649 </v>
   <v>       0.00000000       0.25000000       0.50414649 </v>
   <v>       0.00000000       0.25000000       0.53414649 </v>
   <v>       0.00000000       0.37500000       0.44414649 </v>
   <v>       0.00000000       0.37500000       0.47414649 </v>
   <v>       0.00000000       0.37500000       0.50414649 </v>
   <v>       0.00000000       0.37500000       0.53414649 </v>
   <v>       0.00000000       0.50000000       0.44414649 </v>
   <v>       0.00000000       0.50000000       0.47414649 </v>
   <v>       0.00000000       0.50000000       0.50414649 </v>
   <v>       0.00000000       0.50000000       0.53414649 </v>
   <v>       0.00000000       0.62500000       0.44414649 </v>
   <v>       0.00000000       0.62500000       0.47414649 </v>
   <v>       0.00000000       0.62500000       0.50414649 </v>
   <v>       0.00000000       0.62500000       0.53414649 </v>
   <v>       0.00000000       0.75000000       0.44414649 </v>
   <v>       0.00000000       0.75000000       0.47414649 </v>
   <v>       0.00000000       0.75000000       0.50414649 </v>
   <v>       0.00000000       0.75000000       0.53414649 </v>
   <v>       0.00000000       0.87500000       0.44414649 </v>
   <v>       0.00000000       0.87500000       0.47414649 </v>
   <v>       0.00000000       0.87500000       0.50414649 </v>
   <v>       0.00000000       0.87500000       0.53414649 </v>
   <v>       0.12500000       0.00000000       0.44414649 </v>
   <v>       0.12500000       0.00000000       0.47414649 </v>
   <v>       0.12500000       0.00000000       0.50414649 </v>
   <v>       0.12500000       0.00000000       0.53414649 </v>
   <v>       0.12500000       0.12500000       0.44414649 </v>
   <v>       0.12500000       0.12500000       0.47414649 </v>
   <v>       0.12500000       0.12500000       0.50414649 </v>
   <v>       0.12500000       0.12500000       0.53414649 </v>
   <v>       0.12500000       0.25000000       0.44414649 </v>
   <v>       0.12500000       0.25000000       0.47414649 </v>
   <v>       0.12500000       0.25000000       0.50414649 </v>
   <v>       0.12500000       0.25000000       0.53414649 </v>
   <v>       0.12500000       0.37500000       0.44414649 </v>
   <v>       0.12500000       0.37500000       0.47414649 </v>
   <v>       0.12500000       0.37500000       0.50414649 </v>
   <v>       0.12500000       0.37500000       0.53414649 </v>
   <v>       0.12500000       0.50000000       0.44414649 </v>
   <v>       0.12500000       0.50000000       0.47414649 </v>
   <v>       0.12500000       0.50000000       0.50414649 </v>
   <v>       0.12500000       0.50000000       0.53414649 </v>
   <v>       0.12500000       0.62500000       0.44414649 </v>
   <v>       0.12500000       0.62500000       0.47414649 </v>
   <v>       0.12500000       0.62500000       0.50414649 </v>
   <v>       0.12500000       0.62500000       0.53414649 </v>
   <v>       0.12500000       0.75000000       0.44414649 </v>
   <v>       0.12500000       0.75000000       0.47414649 </v>
   <v>       0.12500000       0.75000000       0.50414649 </v>
   <v>       0.12500000       0.75000000       0.53414649 </v>
   <v>       0.12500000       0.87500000       0.44414649 </v>
   <v>       0.12500000       0.87500000       0.47414649 </v>
   <v>       0.12500000       0.87500000       0.50414649 </v>
   <v>       0.12500000       0.87500000       0.53414649 </v>
   <v>       0.25000000       0.00000000       0.44414649 </v>
   <v>       0.25000000       0.00000000       0.47414649 </v>
   <v>       0.25000000       0.00000000       0.50414649 </v>
   <v>       0.25000000       0.00000000       0.53414649 </v>
   <v>       0.25000000       0.12500000       0.44414649 </v>
   <v>       0.25000000       0.12500000       0.47414649 </v>
   <v>       0.25000000       0.12500000       0.50414649 </v>
   <v>       0.25000000       0.12500000       0.53414649 </v>
   <v>       0.25000000       0.25000000       0.44414649 </v>
   <v>       0.25000000       0.25000000       0.47414649 </v>
   <v>       0.25000000       0.25000000       0.50414649 </v>
   <v>       0.25000000       0.25000000       0.53414649 </v>
   <v>       0.25000000       0.37500000       0.44414649 </v>
   <v>       0.25000000       0.37500000       0.47414649 </v>
   <v>       0.25000000       0.37500000       0.50414649 </v>
   <v>       0.25000000       0.37500000       0.53414649 </v>
   <v>       0.25000000       0.50000000       0.44414649 </v>
   <v>       0.25000000       0.50000000       0.47414649 </v>
   <v>       0.25000000       0.50000000       0.50414649 </v>
   <v>       0.25000000       0.50000000       0.53414649 </v>
   <v>       0.25000000       0.62500000       0.44414649 </v>
   <v>       0.25000000       0.62500000       0.47414649 </v>
   <v>       0.25000000       0.62500000       0.50414649 </v>
   <v>       0.25000000       0.62500000       0.53414649 </v>
   <v>       0.25000000       0.75000000       0.44414649 </v>
   <v>       0.25000000       0.75000000       0.47414649 </v>
   <v>       0.25000000       0.75000000       0.50414649 </v>
   <v>       0.25000000       0.75000000       0.53414649 </v>
   <v>       0.25000000       0.87500000       0.44414649 </v>
   <v>       0.25000000       0.87500000       0.47414649 </v>
   <v>       0.25000000       0.87500000       0.50414649 </v>
   <v>       0.25000000       0.87500000       0.53414649 </v>
   <v>       0.37500000       0.00000000       0.44414649 </v>
   <v>       0.37500000       0.00000000       0.47414649 </v>
   <v>       0.37500000       0.00000000       0.50414649 </v>
   <v>       0.37500000       0.00000000       0.53414649 </v>
   <v>       0.37500000       0.12500000       0.44414649 </v>
   <v>       0.37500000       0.12500000       0.47414649 </v>
   <v>       0.37500000       0.12500000       0.50414649 </v>
   <v>       0.37500000       0.12500000       0.53414649 </v>
   <v>       0.37500000       0.25000000       0.44414649 </v>
   <v>       0.37500000       0.25000000       0.47414649 </v>
   <v>       0.37500000       0.25000000       0.50414649 </v>
   <v>       0.37500000       0.25000000       0.53414649 </v>
   <v>       0.37500000       0.37500000       0.44414649 </v>
   <v>       0.37500000       0.37500000       0.47414649 </v>
   <v>       0.37500000       0.37500000       0.50414649 </v>
   <v>       0.37500000       0.37500000       0.53414649 </v>
   <v>       0.37500000       0.50000000       0.44414649 </v>
   <v>       0.37500000       0.50000000       0.47414649 </v>
   <v>       0.37500000       0.50000000       0.50414649 </v>
   <v>       0.37500000       0.50000000       0.53414649 </v>
   <v>       0.37500000       0.62500000       0.44414649 </v>
   <v>       0.37500000       0.62500000       0.47414649 </v>
   <v>       0.37500000       0.62500000       0.50414649 </v>
   <v>       0.37500000       0.62500000       0.53414649 </v>
   <v>       0.37500000       0.75000000       0.44414649 </v>
   <v>       0.37500000       0.75000000       0.47414649 </v>
   <v>       0.37500000       0.75000000       0.50414649 </v>
   <v>       0.37500000       0.75000000       0.53414649 </v>
   <v>       0.37500000       0.87500000       0.44414649 </v>
   <v>       0.37500000       0.87500000       0.47414649 </v>
   <v>       0.37500000       0.87500000       0.50414649 </v>
   <v>       0.37500000       0.87500000       0.53414649 </v>
   <v>       0.50000000       0.00000000       0.44414649 </v>
   <v>       0.50000000       0.00000000       0.47414649 </v>
   <v>       0.50000000       0.00000000       0.50414649 </v>
   <v>       0.50000000       0.00000000       0.53414649 </v>
   <v>       0.50000000       0.12500000       0.44414649 </v>
   <v>       0.50000000       0.12500000       0.47414649 </v>
   <v>       0.50000000       0.12500000       0.50414649 </v>
   <v>       0.50000000       0.12500000       0.53414649 </v>
   <v>       0.50000000       0.25000000       0.44414649 </v>
   <v>       0.50000000       0.25000000       0.47414649 </v>
   <v>       0.50000000       0.25000000       0.50414649 </v>
   <v>       0.50000000       0.25000000       0.53414649 </v>
   <v>       0.50000000       0.37500000       0.44414649 </v>
   <v>       0.50000000       0.37500000       0.47414649 </v>
   <v>       0.50000000       0.37500000       0.50414649 </v>
   <v>       0.50000000       0.37500000       0.53414649 </v>
   <v>       0.50000000       0.50000000       0.44414649 </v>
   <v>       0.50000000       0.50000000       0.47414649 </v>
[...]
   <v>       0.77735976       0.27735976       0.05983465 </v>
   <v>       0.77669361       0.61165323       0.05950376 </v>
   <v>       0.77735976       0.94528054       0.05983465 </v>
   <v>       0.11165323       0.27669367       0.05950376 </v>
   <v>       0.11165311       0.61165323       0.05950376 </v>
   <v>       0.11144283       0.94427858       0.06028066 </v>
   <v>       0.55612693       0.38774620       0.11640571 </v>
   <v>       0.55545110       0.72227445       0.11672799 </v>
   <v>       0.55612687       0.05612693       0.11640571 </v>
   <v>       0.88843663       0.38843669       0.11663236 </v>
   <v>       0.88843675       0.72312662       0.11663236 </v>
   <v>       0.88774620       0.05612693       0.11640571 </v>
   <v>       0.22312662       0.38843669       0.11663236 </v>
   <v>       0.22227445       0.72227445       0.11672799 </v>
   <v>       0.22227445       0.05545110       0.11672799 </v>
   <v>       0.66670951       0.49985788       0.17231758 </v>
   <v>       0.66670945       0.83343262       0.17231758 </v>
   <v>       0.66666669       0.16666675       0.17293558 </v>
   <v>      -0.00000000       0.50000000       0.17145691 </v>
   <v>      -0.00014212       0.83343262       0.17231758 </v>
   <v>      -0.00014212       0.16670957       0.17231758 </v>
   <v>       0.33343256       0.49985788       0.17231758 </v>
   <v>       0.33333337       0.83333331       0.17249703 </v>
   <v>       0.33343256       0.16670957       0.17231758 </v>
   <v>       0.77806846       0.61096580       0.22708748 </v>
   <v>       0.77725501       0.94549005       0.22668019 </v>
   <v>       0.77725501       0.27725501       0.22668019 </v>
   <v>       0.11096568       0.61096580       0.22708748 </v>
   <v>       0.10981571       0.94509215       0.22642297 </v>
   <v>       0.11096580       0.27806852       0.22708748 </v>
   <v>       0.44509209       0.60981582       0.22642297 </v>
   <v>       0.44509209       0.94509215       0.22642297 </v>
   <v>       0.44549011       0.27725501       0.22668019 </v>
   <v>       0.88969818       0.72060376       0.28189915 </v>
   <v>       0.89146777       0.05426614       0.28216694 </v>
   <v>       0.88969806       0.38969806       0.28189915 </v>
   <v>       0.22123409       0.72123409       0.28129317 </v>
   <v>       0.22123409       0.05753183       0.28129317 </v>
   <v>       0.22060376       0.38969806       0.28189915 </v>
   <v>       0.55753171       0.72123409       0.28129317 </v>
   <v>       0.55426614       0.05426614       0.28216694 </v>
   <v>       0.55426626       0.39146771       0.28216694 </v>
   <v>       0.00357523       0.83140518       0.33522307 </v>
   <v>       0.00357523       0.16501965       0.33522307 </v>
   <v>      -0.00000000       0.50000000       0.34036143 </v>
   <v>       0.33333337       0.83333331       0.33347287 </v>
   <v>       0.33140512       0.16501965       0.33522307 </v>
   <v>       0.33140524       0.50357523       0.33522307 </v>
   <v>       0.66501965       0.83140518       0.33522307 </v>
   <v>       0.66666675       0.16666675       0.33487112 </v>
   <v>       0.66501953       0.50357523       0.33522307 </v>
   <v>       0.11208931       0.94395535       0.39614001 </v>
   <v>       0.11304401       0.27391211       0.38884779 </v>
   <v>       0.11304401       0.61304389       0.38884779 </v>
   <v>       0.44395529       0.94395535       0.39614001 </v>
   <v>       0.46495918       0.26752047       0.39221288 </v>
   <v>       0.44395541       0.61208931       0.39614001 </v>
   <v>       0.76752059       0.96495912       0.39221288 </v>
   <v>       0.76752047       0.26752047       0.39221288 </v>
   <v>       0.77391211       0.61304389       0.38884779 </v>
   <v>      -0.00000000      -0.00000000       0.41865194 </v>
   <v>      -0.00000000      -0.00000000       0.45290412 </v>
   <v>      -0.00000000      -0.00000000       0.52976678 </v>
   <v>      -0.00000000      -0.00000000       0.56126206 </v>
   <v>      -0.00601212       0.13633554       0.43248281 </v>
   <v>      -0.00511576       0.12709017       0.46445414 </v>
   <v>      -0.00294609       0.12806015       0.53156868 </v>
   <v>      -0.00507508       0.12923830       0.56253173 </v>
   <v>      -0.03271089       0.26635544       0.43715382 </v>
   <v>      -0.00292979       0.25146490       0.46662873 </v>
   <v>      -0.00331794       0.25165897       0.53167548 </v>
   <v>      -0.00927710       0.25463855       0.56255977 </v>
   <v>      -0.00601212       0.36967658       0.43248281 </v>
   <v>      -0.00511576       0.37802559       0.46445414 </v>
   <v>      -0.00294609       0.37488595       0.53156868 </v>
   <v>      -0.00507508       0.37583678       0.56253173 </v>
   <v>      -0.00000000       0.50000000       0.41865194 </v>
   <v>      -0.00000000       0.50000000       0.45290412 </v>
   <v>      -0.00000000       0.50000000       0.52976678 </v>
   <v>      -0.00000000       0.50000000       0.56126206 </v>
   <v>      -0.00601212       0.63633554       0.43248281 </v>
   <v>      -0.00511576       0.62709017       0.46445414 </v>
   <v>      -0.00294609       0.62806015       0.53156868 </v>
   <v>      -0.00507508       0.62923830       0.56253173 </v>
   <v>      -0.03271089       0.76635544       0.43715382 </v>
   <v>      -0.00292979       0.75146490       0.46662873 </v>
   <v>      -0.00331794       0.75165897       0.53167548 </v>
   <v>      -0.00927710       0.75463855       0.56255977 </v>
   <v>      -0.00601212       0.86967658       0.43248281 </v>
   <v>      -0.00511576       0.87802559       0.46445414 </v>
   <v>      -0.00294609       0.87488595       0.53156868 </v>
   <v>      -0.00507508       0.87583678       0.56253173 </v>
   <v>       0.13633554      -0.00601212       0.43248281 </v>
   <v>       0.12709017      -0.00511576       0.46445414 </v>
   <v>       0.12806015      -0.00294609       0.53156868 </v>
   <v>       0.12923830      -0.00507508       0.56253173 </v>
   <v>       0.12657064       0.12657064       0.43481433 </v>
   <v>       0.12243504       0.12243504       0.46636587 </v>
   <v>       0.12510432       0.12510432       0.53306548 </v>
   <v>       0.12476745       0.12476745       0.56361519 </v>
   <v>       0.12657064       0.24685873       0.43481433 </v>
   <v>       0.12243504       0.25512991       0.46636587 </v>
   <v>       0.12510432       0.24979136       0.53306548 </v>
   <v>       0.12476745       0.25046509       0.56361519 </v>
   <v>       0.13633554       0.36967658       0.43248281 </v>
   <v>       0.12709017       0.37802559       0.46445414 </v>
   <v>       0.12806015       0.37488595       0.53156868 </v>
   <v>       0.12923830       0.37583678       0.56253173 </v>
   <v>       0.13633554       0.49398788       0.43248281 </v>
   <v>       0.12709017       0.49488424       0.46445414 </v>
   <v>       0.12806015       0.49705391       0.53156868 </v>
   <v>       0.12923830       0.49492492       0.56253173 </v>
   <v>       0.12657064       0.62657064       0.43481433 </v>
   <v>       0.12243504       0.62243504       0.46636587 </v>
   <v>       0.12510432       0.62510432       0.53306548 </v>
   <v>       0.12476745       0.62476745       0.56361519 </v>
   <v>       0.12657064       0.74685873       0.43481433 </v>
   <v>       0.12243504       0.75512991       0.46636587 </v>
   <v>       0.12510432       0.74979136       0.53306548 </v>
   <v>       0.12476745       0.75046509       0.56361519 </v>
   <v>       0.13633554       0.86967658       0.43248281 </v>
   <v>       0.12709017       0.87802559       0.46445414 </v>
   <v>       0.12806015       0.87488595       0.53156868 </v>
   <v>       0.12923830       0.87583678       0.56253173 </v>
   <v>       0.26635544      -0.03271089       0.43715382 </v>
   <v>       0.25146490      -0.00292979       0.46662873 </v>
   <v>       0.25165897      -0.00331794       0.53167548 </v>
   <v>       0.25463855      -0.00927710       0.56255977 </v>
   <v>       0.24685873       0.12657064       0.43481433 </v>
   <v>       0.25512991       0.12243504       0.46636587 </v>
   <v>       0.24979136       0.12510432       0.53306548 </v>
   <v>       0.25046509       0.12476745       0.56361519 </v>
   <v>       0.26635544       0.26635544       0.43715382 </v>
   <v>       0.25146490       0.25146490       0.46662873 </v>
   <v>       0.25165897       0.25165897       0.53167548 </v>
   <v>       0.25463855       0.25463855       0.56255977 </v>
   <v>       0.23050695       0.38474653       0.38227337 </v>
   <v>       0.25565688       0.37217156       0.47812490 </v>
   <v>       0.25298867       0.37350567       0.50919838 </v>
   <v>       0.27530092       0.36234954       0.58738935 </v>
   <v>       0.26635544       0.46728911       0.43715382 </v>
   <v>       0.25146490       0.49707021       0.46662873 </v>
   <v>       0.25165897       0.49668206       0.53167548 </v>
   <v>       0.25463855       0.49072290       0.56255977 </v>
   <v>       0.24685873       0.62657064       0.43481433 </v>
   <v>       0.25512991       0.62243504       0.46636587 </v>
   <v>       0.24979136       0.62510432       0.53306548 </v>
   <v>       0.25046509       0.62476745       0.56361519 </v>
   <v>       0.26635544       0.76635544       0.43715382 </v>
   <v>       0.25146490       0.75146490       0.46662873 </v>
   <v>       0.25165897       0.75165897       0.53167548 </v>
   <v>       0.25463855       0.75463855       0.56255977 </v>
   <v>       0.23050695       0.88474653       0.38227337 </v>
   <v>       0.25565688       0.87217156       0.47812490 </v>
   <v>       0.25298867       0.87350567       0.50919838 </v>
   <v>       0.27530092       0.86234954       0.58738935 </v>
   <v>       0.36967658      -0.00601212       0.43248281 </v>
   <v>       0.37802559      -0.00511576       0.46445414 </v>
   <v>       0.37488595      -0.00294609       0.53156868 </v>
   <v>       0.37583678      -0.00507508       0.56253173 </v>
   <v>       0.36967658       0.13633554       0.43248281 </v>
   <v>       0.37802559       0.12709017       0.46445414 </v>
   <v>       0.37488595       0.12806015       0.53156868 </v>
   <v>       0.37583678       0.12923830       0.56253173 </v>
   <v>       0.38474653       0.23050695       0.38227337 </v>
   <v>       0.37217156       0.25565688       0.47812490 </v>
   <v>       0.37350567       0.25298867       0.50919838 </v>
   <v>       0.36234954       0.27530092       0.58738935 </v>
   <v>       0.38474653       0.38474653       0.38227337 </v>
   <v>       0.37217156       0.37217156       0.47812490 </v>
   <v>       0.37350567       0.37350567       0.50919838 </v>
   <v>       0.36234954       0.36234954       0.58738935 </v>
   <v>       0.36967658       0.49398788       0.43248281 </v>
   <v>       0.37802559       0.49488424       0.46445414 </v>
   <v>       0.37488595       0.49705391       0.53156868 </v>
   <v>       0.37583678       0.49492492       0.56253173 </v>
   <v>       0.36967658       0.63633554       0.43248281 </v>
   <v>       0.37802559       0.62709017       0.46445414 </v>
   <v>       0.37488595       0.62806015       0.53156868 </v>
   <v>       0.37583678       0.62923830       0.56253173 </v>
   <v>       0.38474653       0.73050695       0.38227337 </v>
   <v>       0.37217156       0.75565688       0.47812490 </v>
   <v>       0.37350567       0.75298867       0.50919838 </v>
   <v>       0.36234954       0.77530092       0.58738935 </v>
   <v>       0.38474653       0.88474653       0.38227337 </v>
   <v>       0.37217156       0.87217156       0.47812490 </v>
   <v>       0.37350567       0.87350567       0.50919838 </v>
   <v>       0.36234954       0.86234954       0.58738935 </v>
   <v>       0.50000000      -0.00000000       0.41865194 </v>
   <v>       0.50000000      -0.00000000       0.45290412 </v>
   <v>       0.50000000      -0.00000000       0.52976678 </v>
   <v>       0.50000000       0.00000000       0.56126206 </v>
   <v>       0.49398788       0.13633554       0.43248281 </v>
   <v>       0.49488424       0.12709017       0.46445414 </v>
   <v>       0.49705391       0.12806015       0.53156868 </v>
   <v>       0.49492492       0.12923830       0.56253173 </v>
   <v>       0.46728911       0.26635544       0.43715382 </v>
   <v>       0.49707021       0.25146490       0.46662873 </v>
   <v>       0.49668206       0.25165897       0.53167548 </v>
   <v>       0.49072290       0.25463855       0.56255977 </v>
   <v>       0.49398788       0.36967658       0.43248281 </v>
   <v>       0.49488424       0.37802559       0.46445414 </v>
   <v>       0.49705391       0.37488595       0.53156868 </v>
   <v>       0.49492492       0.37583678       0.56253173 </v>
   <v>       0.50000000       0.50000000       0.41865194 </v>
   <v>       0.50000000       0.50000000       0.45290412 </v>
   <v>       0.50000000       0.50000000       0.52976678 </v>
   <v>       0.50000000       0.50000000       0.56126206 </v>
   <v>       0.49398788       0.63633554       0.43248281 </v>
   <v>       0.49488424       0.62709017       0.46445414 </v>
   <v>       0.49705391       0.62806015       0.53156868 </v>
   <v>       0.49492492       0.62923830       0.56253173 </v>
   <v>       0.46728911       0.76635544       0.43715382 </v>
   <v>       0.49707021       0.75146490       0.46662873 </v>
   <v>       0.49668206       0.75165897       0.53167548 </v>
   <v>       0.49072290       0.75463855       0.56255977 </v>
   <v>       0.49398788       0.86967658       0.43248281 </v>
   <v>       0.49488424       0.87802559       0.46445414 </v>
   <v>       0.49705391       0.87488595       0.53156868 </v>
   <v>       0.49492492       0.87583678       0.56253173 </v>
   <v>       0.63633554      -0.00601212       0.43248281 </v>
   <v>       0.62709017      -0.00511576       0.46445414 </v>
   <v>       0.62806015      -0.00294609       0.53156868 </v>
   <v>       0.62923830      -0.00507508       0.56253173 </v>
   <v>       0.62657064       0.12657064       0.43481433 </v>
   <v>       0.62243504       0.12243504       0.46636587 </v>
   <v>       0.62510432       0.12510432       0.53306548 </v>
   <v>       0.62476745       0.12476745       0.56361519 </v>
   <v>       0.62657064       0.24685873       0.43481433 </v>
   <v>       0.62243504       0.25512991       0.46636587 </v>
   <v>       0.62510432       0.24979136       0.53306548 </v>
   <v>       0.62476745       0.25046509       0.56361519 </v>
   <v>       0.63633554       0.36967658       0.43248281 </v>
   <v>       0.62709017       0.37802559       0.46445414 </v>
   <v>       0.62806015       0.37488595       0.53156868 </v>
   <v>       0.62923830       0.37583678       0.56253173 </v>
   <v>       0.63633554       0.49398788       0.43248281 </v>
   <v>       0.62709017       0.49488424       0.46445414 </v>
   <v>       0.62806015       0.49705391       0.53156868 </v>
   <v>       0.62923830       0.49492492       0.56253173 </v>
   <v>       0.62657064       0.62657064       0.43481433 </v>
   <v>       0.62243504       0.62243504       0.46636587 </v>
   <v>       0.62510432       0.62510432       0.53306548 </v>
   <v>       0.62476745       0.62476745       0.56361519 </v>
   <v>       0.62657064       0.74685873       0.43481433 </v>
   <v>       0.62243504       0.75512991       0.46636587 </v>
   <v>       0.62510432       0.74979136       0.53306548 </v>
   <v>       0.62476745       0.75046509       0.56361519 </v>
   <v>       0.63633554       0.86967658       0.43248281 </v>
   <v>       0.62709017       0.87802559       0.46445414 </v>
   <v>       0.62806015       0.87488595       0.53156868 </v>
   <v>       0.62923830       0.87583678       0.56253173 </v>
   <v>       0.76635544      -0.03271089       0.43715382 </v>
   <v>       0.75146490      -0.00292979       0.46662873 </v>
   <v>       0.75165897      -0.00331794       0.53167548 </v>
   <v>       0.75463855      -0.00927710       0.56255977 </v>
   <v>       0.74685873       0.12657064       0.43481433 </v>
   <v>       0.75512991       0.12243504       0.46636587 </v>
   <v>       0.74979136       0.12510432       0.53306548 </v>
   <v>       0.75046509       0.12476745       0.56361519 </v>
   <v>       0.76635544       0.26635544       0.43715382 </v>
   <v>       0.75146490       0.25146490       0.46662873 </v>
   <v>       0.75165897       0.25165897       0.53167548 </v>
   <v>       0.75463855       0.25463855       0.56255977 </v>
   <v>       0.73050695       0.38474653       0.38227337 </v>
   <v>       0.75565688       0.37217156       0.47812490 </v>
   <v>       0.75298867       0.37350567       0.50919838 </v>
   <v>       0.77530092       0.36234954       0.58738935 </v>
   <v>       0.76635544       0.46728911       0.43715382 </v>
   <v>       0.75146490       0.49707021       0.46662873 </v>
   <v>       0.75165897       0.49668206       0.53167548 </v>
   <v>       0.75463855       0.49072290       0.56255977 </v>
   <v>       0.74685873       0.62657064       0.43481433 </v>
   <v>       0.75512991       0.62243504       0.46636587 </v>
   <v>       0.74979136       0.62510432       0.53306548 </v>
   <v>       0.75046509       0.62476745       0.56361519 </v>
   <v>       0.76635544       0.76635544       0.43715382 </v>
   <v>       0.75146490       0.75146490       0.46662873 </v>
   <v>       0.75165897       0.75165897       0.53167548 </v>
   <v>       0.75463855       0.75463855       0.56255977 </v>
   <v>       0.73050695       0.88474653       0.38227337 </v>
   <v>       0.75565688       0.87217156       0.47812490 </v>
   <v>       0.75298867       0.87350567       0.50919838 </v>
   <v>       0.77530092       0.86234954       0.58738935 </v>
   <v>       0.86967658      -0.00601212       0.43248281 </v>
   <v>       0.87802559      -0.00511576       0.46445414 </v>
   <v>       0.87488595      -0.00294609       0.53156868 </v>
   <v>       0.87583678      -0.00507508       0.56253173 </v>
   <v>       0.86967658       0.13633554       0.43248281 </v>
   <v>       0.87802559       0.12709017       0.46445414 </v>
   <v>       0.87488595       0.12806015       0.53156868 </v>
   <v>       0.87583678       0.12923830       0.56253173 </v>
   <v>       0.88474653       0.23050695       0.38227337 </v>
   <v>       0.87217156       0.25565688       0.47812490 </v>
   <v>       0.87350567       0.25298867       0.50919838 </v>
   <v>       0.86234954       0.27530092       0.58738935 </v>
   <v>       0.88474653       0.38474653       0.38227337 </v>
   <v>       0.87217156       0.37217156       0.47812490 </v>
   <v>       0.87350567       0.37350567       0.50919838 </v>
   <v>       0.86234954       0.36234954       0.58738935 </v>
   <v>       0.86967658       0.49398788       0.43248281 </v>
   <v>       0.87802559       0.49488424       0.46445414 </v>
   <v>       0.87488595       0.49705391       0.53156868 </v>
   <v>       0.87583678       0.49492492       0.56253173 </v>
   <v>       0.86967658       0.63633554       0.43248281 </v>
   <v>       0.87802559       0.62709017       0.46445414 </v>
   <v>       0.87488595       0.62806015       0.53156868 </v>
   <v>       0.87583678       0.62923830       0.56253173 </v>
   <v>       0.88474653       0.73050695       0.38227337 </v>
   <v>       0.87217156       0.75565688       0.47812490 </v>
   <v>       0.87350567       0.75298867       0.50919838 </v>
   <v>       0.86234954       0.77530092       0.58738935 </v>
   <v>       0.88474653       0.88474653       0.38227337 </v>
   <v>       0.87217156       0.87217156       0.47812490 </v>
   <v>       0.87350567       0.87350567       0.50919838 </v>
   <v>       0.86234954       0.86234954       0.58738935 </v>
  </varray>
 </structure>
</modeling>
