NiAl                                    
            1
    17.180573    0.000000    0.000000
     8.590287   14.878812    0.000000
     0.000000    0.000000   40.000000
   Al   O 
   252   256
Direct configuration=     1
   0.44444442  0.44444445  0.05844950
   0.44444442  0.77777779  0.05844950
   0.44444439  0.11111116  0.05844950
   0.77777773  0.44444445  0.05844950
   0.77777779  0.77777779  0.05844950
   0.77777773  0.11111116  0.05844950
   0.11111105  0.44444445  0.05844950
   0.11111116  0.77777779  0.05844950
   0.11111105  0.11111116  0.05844950
   0.55555552  0.55555558  0.11689901
   0.55555552  0.88888890  0.11689901
   0.55555552  0.22222233  0.11689901
   0.88888890  0.55555558  0.11689901
   0.88888884  0.88888890  0.11689901
   0.88888890  0.22222233  0.11689901
   0.22222221  0.55555558  0.11689901
   0.22222221  0.88888890  0.11689901
   0.22222221  0.22222233  0.11689901
   0.66666663  0.66666663  0.17534850
   0.66666669  0.00000000  0.17534850
   0.66666663  0.33333325  0.17534850
   0.00000000  0.66666663  0.17534850
   0.00000000  0.00000000  0.17534850
   0.00000000  0.33333325  0.17534850
   0.33333337  0.66666663  0.17534850
   0.33333337  0.00000000  0.17534850
   0.33333325  0.33333325  0.17534850
   0.77777779  0.77777779  0.23379801
   0.77777773  0.11111116  0.23379801
   0.77777779  0.44444442  0.23379801
   0.11111116  0.77777779  0.23379801
   0.11111105  0.11111116  0.23379801
   0.11111116  0.44444442  0.23379801
   0.44444442  0.77777779  0.23379801
   0.44444430  0.11111116  0.23379801
   0.44444442  0.44444442  0.23379801
   0.88888884  0.88888890  0.29224748
   0.88888890  0.22222233  0.29224748
   0.88888884  0.55555558  0.29224748
   0.22222221  0.88888890  0.29224748
   0.22222221  0.22222233  0.29224748
   0.22222209  0.55555558  0.29224748
   0.55555546  0.88888890  0.29224748
   0.55555546  0.22222233  0.29224748
   0.55555558  0.55555558  0.29224748
   0.00000000  0.00000000  0.35069700
   0.00000000  0.33333325  0.35069700
   0.00000000  0.66666663  0.35069700
   0.33333337  0.00000000  0.35069700
   0.33333325  0.33333325  0.35069700
   0.33333325  0.66666663  0.35069700
   0.66666663  0.00000000  0.35069700
   0.66666675  0.33333325  0.35069700
   0.66666675  0.66666663  0.35069700
   0.11111105  0.11111116  0.40914649
   0.11111116  0.44444442  0.40914649
   0.11111105  0.77777779  0.40914649
   0.44444430  0.11111116  0.40914649
   0.44444442  0.44444442  0.40914649
   0.44444442  0.77777779  0.40914649
   0.77777779  0.11111116  0.40914649
   0.77777791  0.44444442  0.40914649
   0.77777767  0.77777779  0.40914649
   0.27777776  0.27777779  0.05844950
   0.27777776  0.61111116  0.05844950
   0.27777779  0.94444448  0.05844950
   0.61111110  0.27777779  0.05844950
   0.61111110  0.61111116  0.05844950
   0.61111110  0.94444448  0.05844950
   0.94444442  0.27777779  0.05844950
   0.94444448  0.61111116  0.05844950
   0.94444442  0.94444448  0.05844950
   0.38888890  0.38888890  0.11689901
   0.38888890  0.72222221  0.11689901
   0.38888893  0.05555558  0.11689901
   0.72222221  0.38888890  0.11689901
   0.72222221  0.72222221  0.11689901
   0.72222227  0.05555558  0.11689901
   0.05555558  0.38888890  0.11689901
   0.05555558  0.72222221  0.11689901
   0.05555546  0.05555558  0.11689901
   0.50000000  0.50000000  0.17534850
   0.50000006  0.83333331  0.17534850
   0.49999997  0.16666675  0.17534850
   0.83333331  0.50000000  0.17534850
   0.83333337  0.83333331  0.17534850
   0.83333331  0.16666675  0.17534850
   0.16666663  0.50000000  0.17534850
   0.16666663  0.83333331  0.17534850
   0.16666663  0.16666675  0.17534850
   0.61111110  0.61111116  0.23379801
   0.61111110  0.94444448  0.23379801
   0.61111116  0.27777779  0.23379801
   0.94444448  0.61111116  0.23379801
   0.94444442  0.94444448  0.23379801
   0.94444442  0.27777779  0.23379801
   0.27777767  0.61111116  0.23379801
   0.27777779  0.94444448  0.23379801
   0.27777779  0.27777779  0.23379801
   0.72222221  0.72222221  0.29224748
   0.72222227  0.05555558  0.29224748
   0.72222221  0.38888884  0.29224748
   0.05555558  0.72222221  0.29224748
   0.05555546  0.05555558  0.29224748
   0.05555558  0.38888884  0.29224748
   0.38888895  0.72222221  0.29224748
   0.38888884  0.05555558  0.29224748
   0.38888895  0.38888884  0.29224748
   0.83333337  0.83333331  0.35069700
   0.83333331  0.16666675  0.35069700
   0.83333325  0.50000000  0.35069700
   0.16666663  0.83333331  0.35069700
   0.16666663  0.16666675  0.35069700
   0.16666663  0.50000000  0.35069700
   0.50000000  0.83333331  0.35069700
   0.50000000  0.16666675  0.35069700
   0.50000012  0.50000000  0.35069700
   0.94444442  0.94444448  0.40914649
   0.94444442  0.27777779  0.40914649
   0.94444448  0.61111105  0.40914649
   0.27777779  0.94444448  0.40914649
   0.27777779  0.27777779  0.40914649
   0.27777779  0.61111105  0.40914649
   0.61111116  0.94444448  0.40914649
   0.61111128  0.27777779  0.40914649
   0.61111105  0.61111105  0.40914649
   0.27777776  0.44444445  0.05844950
   0.27777773  0.77777779  0.05844950
   0.27777776  0.11111116  0.05844950
   0.61111110  0.44444445  0.05844950
   0.61111105  0.77777779  0.05844950
   0.61111110  0.11111116  0.05844950
   0.94444448  0.44444445  0.05844950
   0.94444442  0.77777779  0.05844950
   0.94444448  0.11111116  0.05844950
   0.38888887  0.55555558  0.11689901
   0.38888887  0.88888890  0.11689901
   0.38888881  0.22222233  0.11689901
   0.72222215  0.55555558  0.11689901
   0.72222221  0.88888890  0.11689901
   0.72222215  0.22222233  0.11689901
   0.05555546  0.55555558  0.11689901
   0.05555558  0.88888890  0.11689901
   0.05555546  0.22222233  0.11689901
   0.50000000  0.66666663  0.17534850
   0.49999994  0.00000000  0.17534850
   0.50000000  0.33333325  0.17534850
   0.83333337  0.66666663  0.17534850
   0.83333331  0.00000000  0.17534850
   0.83333337  0.33333325  0.17534850
   0.16666675  0.66666663  0.17534850
   0.16666663  0.00000000  0.17534850
   0.16666675  0.33333325  0.17534850
   0.61111105  0.77777779  0.23379801
   0.61111110  0.11111116  0.23379801
   0.61111105  0.44444442  0.23379801
   0.94444442  0.77777779  0.23379801
   0.94444448  0.11111116  0.23379801
   0.94444442  0.44444442  0.23379801
   0.27777779  0.77777779  0.23379801
   0.27777779  0.11111116  0.23379801
   0.27777767  0.44444442  0.23379801
   0.72222221  0.88888890  0.29224748
   0.72222215  0.22222233  0.29224748
   0.72222221  0.55555558  0.29224748
   0.05555558  0.88888890  0.29224748
   0.05555546  0.22222233  0.29224748
   0.05555558  0.55555558  0.29224748
   0.38888895  0.88888890  0.29224748
   0.38888872  0.22222233  0.29224748
   0.38888884  0.55555558  0.29224748
   0.83333331  0.00000000  0.35069700
   0.83333337  0.33333325  0.35069700
   0.83333331  0.66666663  0.35069700
   0.16666663  0.00000000  0.35069700
   0.16666675  0.33333325  0.35069700
   0.16666663  0.66666663  0.35069700
   0.49999988  0.00000000  0.35069700
   0.50000000  0.33333325  0.35069700
   0.50000000  0.66666663  0.35069700
   0.94444448  0.11111116  0.40914649
   0.94444442  0.44444442  0.40914649
   0.94444448  0.77777779  0.40914649
   0.27777779  0.11111116  0.40914649
   0.27777767  0.44444442  0.40914649
   0.27777767  0.77777779  0.40914649
   0.61111105  0.11111116  0.40914649
   0.61111116  0.44444442  0.40914649
   0.61111116  0.77777779  0.40914649
   0.44444445  0.27777779  0.05844950
   0.44444445  0.61111116  0.05844950
   0.44444445  0.94444448  0.05844950
   0.77777779  0.27777779  0.05844950
   0.77777773  0.61111116  0.05844950
   0.77777779  0.94444448  0.05844950
   0.11111116  0.27777779  0.05844950
   0.11111105  0.61111116  0.05844950
   0.11111105  0.94444448  0.05844950
   0.55555558  0.38888890  0.11689901
   0.55555558  0.72222221  0.11689901
   0.55555552  0.05555558  0.11689901
   0.88888884  0.38888890  0.11689901
   0.88888895  0.72222221  0.11689901
   0.88888890  0.05555558  0.11689901
   0.22222221  0.38888890  0.11689901
   0.22222221  0.72222221  0.11689901
   0.22222221  0.05555558  0.11689901
   0.66666669  0.50000000  0.17534850
   0.66666663  0.83333331  0.17534850
   0.66666669  0.16666675  0.17534850
   0.00000000  0.50000000  0.17534850
   0.00000000  0.83333331  0.17534850
   0.00000000  0.16666675  0.17534850
   0.33333325  0.50000000  0.17534850
   0.33333337  0.83333331  0.17534850
   0.33333325  0.16666675  0.17534850
   0.77777773  0.61111116  0.23379801
   0.77777779  0.94444448  0.23379801
   0.77777779  0.27777779  0.23379801
   0.11111105  0.61111116  0.23379801
   0.11111105  0.94444448  0.23379801
   0.11111116  0.27777779  0.23379801
   0.44444442  0.61111116  0.23379801
   0.44444442  0.94444448  0.23379801
   0.44444454  0.27777779  0.23379801
   0.88888895  0.72222221  0.29224748
   0.88888890  0.05555558  0.29224748
   0.88888884  0.38888884  0.29224748
   0.22222221  0.72222221  0.29224748
   0.22222221  0.05555558  0.29224748
   0.22222221  0.38888884  0.29224748
   0.55555546  0.72222221  0.29224748
   0.55555558  0.05555558  0.29224748
   0.55555570  0.38888884  0.29224748
   0.00000000  0.83333331  0.35069700
   0.00000000  0.16666675  0.35069700
   0.00000000  0.50000000  0.35069700
   0.33333337  0.83333331  0.35069700
   0.33333325  0.16666675  0.35069700
   0.33333337  0.50000000  0.35069700
   0.66666675  0.83333331  0.35069700
   0.66666675  0.16666675  0.35069700
   0.66666663  0.50000000  0.35069700
   0.11111105  0.94444448  0.40914649
   0.11111116  0.27777779  0.40914649
   0.11111116  0.61111105  0.40914649
   0.44444442  0.94444448  0.40914649
   0.44444454  0.27777779  0.40914649
   0.44444454  0.61111105  0.40914649
   0.77777791  0.94444448  0.40914649
   0.77777779  0.27777779  0.40914649
   0.77777779  0.61111105  0.40914649
   0.00000000  0.00000000  0.44414649
   0.00000000  0.00000000  0.47414649
   0.00000000  0.00000000  0.50414649
   0.00000000  0.00000000  0.53414649
   0.00000000  0.12500000  0.44414649
   0.00000000  0.12500000  0.47414649
   0.00000000  0.12500000  0.50414649
   0.00000000  0.12500000  0.53414649
   0.00000000  0.25000000  0.44414649
   0.00000000  0.25000000  0.47414649
   0.00000000  0.25000000  0.50414649
   0.00000000  0.25000000  0.53414649
   0.00000000  0.37500000  0.44414649
   0.00000000  0.37500000  0.47414649
   0.00000000  0.37500000  0.50414649
   0.00000000  0.37500000  0.53414649
   0.00000000  0.50000000  0.44414649
   0.00000000  0.50000000  0.47414649
   0.00000000  0.50000000  0.50414649
   0.00000000  0.50000000  0.53414649
   0.00000000  0.62500000  0.44414649
   0.00000000  0.62500000  0.47414649
   0.00000000  0.62500000  0.50414649
   0.00000000  0.62500000  0.53414649
   0.00000000  0.75000000  0.44414649
   0.00000000  0.75000000  0.47414649
   0.00000000  0.75000000  0.50414649
   0.00000000  0.75000000  0.53414649
   0.00000000  0.87500000  0.44414649
   0.00000000  0.87500000  0.47414649
   0.00000000  0.87500000  0.50414649
   0.00000000  0.87500000  0.53414649
   0.12500000  0.00000000  0.44414649
   0.12500000  0.00000000  0.47414649
   0.12500000  0.00000000  0.50414649
   0.12500000  0.00000000  0.53414649
   0.12500000  0.12500000  0.44414649
   0.12500000  0.12500000  0.47414649
   0.12500000  0.12500000  0.50414649
   0.12500000  0.12500000  0.53414649
   0.12500000  0.25000000  0.44414649
   0.12500000  0.25000000  0.47414649
   0.12500000  0.25000000  0.50414649
   0.12500000  0.25000000  0.53414649
   0.12500000  0.37500000  0.44414649
   0.12500000  0.37500000  0.47414649
   0.12500000  0.37500000  0.50414649
   0.12500000  0.37500000  0.53414649
   0.12500000  0.50000000  0.44414649
   0.12500000  0.50000000  0.47414649
   0.12500000  0.50000000  0.50414649
   0.12500000  0.50000000  0.53414649
   0.12500000  0.62500000  0.44414649
   0.12500000  0.62500000  0.47414649
   0.12500000  0.62500000  0.50414649
   0.12500000  0.62500000  0.53414649
   0.12500000  0.75000000  0.44414649
   0.12500000  0.75000000  0.47414649
   0.12500000  0.75000000  0.50414649
   0.12500000  0.75000000  0.53414649
   0.12500000  0.87500000  0.44414649
   0.12500000  0.87500000  0.47414649
   0.12500000  0.87500000  0.50414649
   0.12500000  0.87500000  0.53414649
   0.25000000  0.00000000  0.44414649
   0.25000000  0.00000000  0.47414649
   0.25000000  0.00000000  0.50414649
   0.25000000  0.00000000  0.53414649
   0.25000000  0.12500000  0.44414649
   0.25000000  0.12500000  0.47414649
   0.25000000  0.12500000  0.50414649
   0.25000000  0.12500000  0.53414649
   0.25000000  0.25000000  0.44414649
   0.25000000  0.25000000  0.47414649
   0.25000000  0.25000000  0.50414649
   0.25000000  0.25000000  0.53414649
   0.25000000  0.37500000  0.44414649
   0.25000000  0.37500000  0.47414649
   0.25000000  0.37500000  0.50414649
   0.25000000  0.37500000  0.53414649
   0.25000000  0.50000000  0.44414649
   0.25000000  0.50000000  0.47414649
   0.25000000  0.50000000  0.50414649
   0.25000000  0.50000000  0.53414649
   0.25000000  0.62500000  0.44414649
   0.25000000  0.62500000  0.47414649
   0.25000000  0.62500000  0.50414649
   0.25000000  0.62500000  0.53414649
   0.25000000  0.75000000  0.44414649
   0.25000000  0.75000000  0.47414649
   0.25000000  0.75000000  0.50414649
   0.25000000  0.75000000  0.53414649
   0.25000000  0.87500000  0.44414649
   0.25000000  0.87500000  0.47414649
   0.25000000  0.87500000  0.50414649
   0.25000000  0.87500000  0.53414649
   0.37500000  0.00000000  0.44414649
   0.37500000  0.00000000  0.47414649
   0.37500000  0.00000000  0.50414649
   0.37500000  0.00000000  0.53414649
   0.37500000  0.12500000  0.44414649
   0.37500000  0.12500000  0.47414649
   0.37500000  0.12500000  0.50414649
   0.37500000  0.12500000  0.53414649
   0.37500000  0.25000000  0.44414649
   0.37500000  0.25000000  0.47414649
   0.37500000  0.25000000  0.50414649
   0.37500000  0.25000000  0.53414649
   0.37500000  0.37500000  0.44414649
   0.37500000  0.37500000  0.47414649
   0.37500000  0.37500000  0.50414649
   0.37500000  0.37500000  0.53414649
   0.37500000  0.50000000  0.44414649
   0.37500000  0.50000000  0.47414649
   0.37500000  0.50000000  0.50414649
   0.37500000  0.50000000  0.53414649
   0.37500000  0.62500000  0.44414649
   0.37500000  0.62500000  0.47414649
   0.37500000  0.62500000  0.50414649
   0.37500000  0.62500000  0.53414649
   0.37500000  0.75000000  0.44414649
   0.37500000  0.75000000  0.47414649
   0.37500000  0.75000000  0.50414649
   0.37500000  0.75000000  0.53414649
   0.37500000  0.87500000  0.44414649
   0.37500000  0.87500000  0.47414649
   0.37500000  0.87500000  0.50414649
   0.37500000  0.87500000  0.53414649
   0.50000000  0.00000000  0.44414649
   0.50000000  0.00000000  0.47414649
   0.50000000  0.00000000  0.50414649
   0.50000000  0.00000000  0.53414649
   0.50000000  0.12500000  0.44414649
   0.50000000  0.12500000  0.47414649
   0.50000000  0.12500000  0.50414649
   0.50000000  0.12500000  0.53414649
   0.50000000  0.25000000  0.44414649
   0.50000000  0.25000000  0.47414649
   0.50000000  0.25000000  0.50414649
   0.50000000  0.25000000  0.53414649
   0.50000000  0.37500000  0.44414649
   0.50000000  0.37500000  0.47414649
   0.50000000  0.37500000  0.50414649
   0.50000000  0.37500000  0.53414649
   0.50000000  0.50000000  0.44414649
   0.50000000  0.50000000  0.47414649
   0.50000000  0.50000000  0.50414649
   0.50000000  0.50000000  0.53414649
   0.50000000  0.62500000  0.44414649
   0.50000000  0.62500000  0.47414649
   0.50000000  0.62500000  0.50414649
   0.50000000  0.62500000  0.53414649
   0.50000000  0.75000000  0.44414649
   0.50000000  0.75000000  0.47414649
   0.50000000  0.75000000  0.50414649
   0.50000000  0.75000000  0.53414649
   0.50000000  0.87500000  0.44414649
   0.50000000  0.87500000  0.47414649
   0.50000000  0.87500000  0.50414649
   0.50000000  0.87500000  0.53414649
   0.62500000  0.00000000  0.44414649
   0.62500000  0.00000000  0.47414649
   0.62500000  0.00000000  0.50414649
   0.62500000  0.00000000  0.53414649
   0.62500000  0.12500000  0.44414649
   0.62500000  0.12500000  0.47414649
   0.62500000  0.12500000  0.50414649
   0.62500000  0.12500000  0.53414649
   0.62500000  0.25000000  0.44414649
   0.62500000  0.25000000  0.47414649
   0.62500000  0.25000000  0.50414649
   0.62500000  0.25000000  0.53414649
   0.62500000  0.37500000  0.44414649
   0.62500000  0.37500000  0.47414649
   0.62500000  0.37500000  0.50414649
   0.62500000  0.37500000  0.53414649
   0.62500000  0.50000000  0.44414649
   0.62500000  0.50000000  0.47414649
   0.62500000  0.50000000  0.50414649
   0.62500000  0.50000000  0.53414649
   0.62500000  0.62500000  0.44414649
   0.62500000  0.62500000  0.47414649
   0.62500000  0.62500000  0.50414649
   0.62500000  0.62500000  0.53414649
   0.62500000  0.75000000  0.44414649
   0.62500000  0.75000000  0.47414649
   0.62500000  0.75000000  0.50414649
   0.62500000  0.75000000  0.53414649
   0.62500000  0.87500000  0.44414649
   0.62500000  0.87500000  0.47414649
   0.62500000  0.87500000  0.50414649
   0.62500000  0.87500000  0.53414649
   0.75000000  0.00000000  0.44414649
   0.75000000  0.00000000  0.47414649
   0.75000000  0.00000000  0.50414649
   0.75000000  0.00000000  0.53414649
   0.75000000  0.12500000  0.44414649
   0.75000000  0.12500000  0.47414649
   0.75000000  0.12500000  0.50414649
   0.75000000  0.12500000  0.53414649
   0.75000000  0.25000000  0.44414649
   0.75000000  0.25000000  0.47414649
   0.75000000  0.25000000  0.50414649
   0.75000000  0.25000000  0.53414649
   0.75000000  0.37500000  0.44414649
   0.75000000  0.37500000  0.47414649
   0.75000000  0.37500000  0.50414649
   0.75000000  0.37500000  0.53414649
   0.75000000  0.50000000  0.44414649
   0.75000000  0.50000000  0.47414649
   0.75000000  0.50000000  0.50414649
   0.75000000  0.50000000  0.53414649
   0.75000000  0.62500000  0.44414649
   0.75000000  0.62500000  0.47414649
   0.75000000  0.62500000  0.50414649
   0.75000000  0.62500000  0.53414649
   0.75000000  0.75000000  0.44414649
   0.75000000  0.75000000  0.47414649
   0.75000000  0.75000000  0.50414649
   0.75000000  0.75000000  0.53414649
   0.75000000  0.87500000  0.44414649
   0.75000000  0.87500000  0.47414649
   0.75000000  0.87500000  0.50414649
   0.75000000  0.87500000  0.53414649
   0.87500000  0.00000000  0.44414649
   0.87500000  0.00000000  0.47414649
   0.87500000  0.00000000  0.50414649
   0.87500000  0.00000000  0.53414649
   0.87500000  0.12500000  0.44414649
   0.87500000  0.12500000  0.47414649
   0.87500000  0.12500000  0.50414649
   0.87500000  0.12500000  0.53414649
   0.87500000  0.25000000  0.44414649
   0.87500000  0.25000000  0.47414649
   0.87500000  0.25000000  0.50414649
   0.87500000  0.25000000  0.53414649
   0.87500000  0.37500000  0.44414649
   0.87500000  0.37500000  0.47414649
   0.87500000  0.37500000  0.50414649
   0.87500000  0.37500000  0.53414649
   0.87500000  0.50000000  0.44414649
   0.87500000  0.50000000  0.47414649
   0.87500000  0.50000000  0.50414649
   0.87500000  0.50000000  0.53414649
   0.87500000  0.62500000  0.44414649
   0.87500000  0.62500000  0.47414649
   0.87500000  0.62500000  0.50414649
   0.87500000  0.62500000  0.53414649
   0.87500000  0.75000000  0.44414649
   0.87500000  0.75000000  0.47414649
   0.87500000  0.75000000  0.50414649
   0.87500000  0.75000000  0.53414649
   0.87500000  0.87500000  0.44414649
   0.87500000  0.87500000  0.47414649
   0.87500000  0.87500000  0.50414649
   0.87500000  0.87500000  0.53414649
Direct configuration=     2
   0.44444140  0.44444143  0.05478331
   0.44421433  0.77789283  0.05472758
   0.44444137  0.11111720  0.05478331
   0.77789277  0.44421436  0.05472758
   0.77789283  0.77789283  0.05472758
   0.77799142  0.11100432  0.05495276
   0.11111708  0.44444143  0.05478331
   0.11100432  0.77799148  0.05495276
   0.11100420  0.11100432  0.05495276
   0.55568940  0.55568946  0.12623406
   0.55568940  0.88862114  0.12623406
   0.55561509  0.22219254  0.12639788
   0.88862114  0.55568946  0.12623406
   0.88902620  0.88902626  0.12637152
   0.88902626  0.22194760  0.12637152
   0.22219242  0.55561515  0.12639788
   0.22194748  0.88902626  0.12637152
   0.22219242  0.22219254  0.12639788
   0.66666663  0.66666663  0.17025594
   0.66696248  0.00011728  0.17041109
   0.66696242  0.33292019  0.17041109
   0.00011728  0.66696242  0.17041109
  -0.00000000  0.00000000  0.17052180
   0.00011728  0.33292019  0.17041109
   0.33292030  0.66696242  0.17041109
   0.33292030  0.00011728  0.17041109
   0.33333325  0.33333325  0.17060111
   0.77794965  0.77794965  0.22945592
   0.77786684  0.11106661  0.22941744
   0.77794965  0.44410071  0.22945592
   0.11106661  0.77786690  0.22941744
   0.11106649  0.11106661  0.22941744
   0.11127182  0.44436409  0.22958284
   0.44410071  0.77794965  0.22945592
   0.44436397  0.11127182  0.22958284
   0.44436409  0.44436409  0.22958284
   0.88877591  0.88877597  0.29068981
   0.88877597  0.22244817  0.29068981
   0.88900286  0.55549857  0.29075405
   0.22244805  0.88877597  0.29068981
   0.22225251  0.22225263  0.29097527
   0.22225239  0.55549498  0.29097527
   0.55549845  0.88900292  0.29075405
   0.55549487  0.22225263  0.29097527
   0.55549857  0.55549857  0.29075405
  -0.00000000  0.00000000  0.35431226
   0.00042143  0.33282019  0.35440375
   0.00042143  0.66675826  0.35440375
   0.33282031  0.00042143  0.35440375
   0.33333325  0.33333325  0.35437864
   0.33282019  0.66675826  0.35440375
   0.66675826  0.00042143  0.35440375
   0.66675837  0.33282019  0.35440375
   0.66666675  0.66666663  0.35425550
   0.10999235  0.10999247  0.39992644
   0.10967910  0.44516045  0.40011010
   0.10999235  0.78001517  0.39992644
   0.44516033  0.10967910  0.40011010
   0.44516045  0.44516045  0.40011010
   0.44362105  0.77818947  0.39703000
   0.78001517  0.10999247  0.39992644
   0.77818959  0.44362105  0.39703000
   0.77818935  0.77818947  0.39703000
   0.27789280  0.27789283  0.05472758
   0.27799145  0.61100432  0.05495276
   0.27789283  0.94421439  0.05472758
   0.61100426  0.27799148  0.05495276
   0.61100426  0.61100432  0.05495276
   0.61111714  0.94444146  0.05478331
   0.94421433  0.27789283  0.05472758
   0.94444146  0.61111720  0.05478331
   0.94444140  0.94444146  0.05478331
   0.38902626  0.38902626  0.12637152
   0.38902626  0.72194748  0.12637152
   0.38862117  0.05568946  0.12623406
   0.72194748  0.38902626  0.12637152
   0.72219242  0.72219242  0.12639788
   0.72219248  0.05561515  0.12639788
   0.05568946  0.38862114  0.12623406
   0.05561515  0.72219242  0.12639788
   0.05568934  0.05568946  0.12623406
   0.50000000  0.50000000  0.17052180
   0.50011734  0.83292024  0.17041109
   0.50011725  0.16696254  0.17041109
   0.83292024  0.50011728  0.17041109
   0.83333337  0.83333331  0.17060111
   0.83292024  0.16696254  0.17041109
   0.16696242  0.50011728  0.17041109
   0.16696242  0.83292024  0.17041109
   0.16666663  0.16666675  0.17025594
   0.61106655  0.61106661  0.22941744
   0.61127176  0.94436415  0.22958284
   0.61106661  0.27786690  0.22941744
   0.94436415  0.61127182  0.22958284
   0.94436409  0.94436415  0.22958284
   0.94410071  0.27794965  0.22945592
   0.27786678  0.61106661  0.22941744
   0.27794965  0.94410077  0.22945592
   0.27794965  0.27794965  0.22945592
   0.72225251  0.72225251  0.29097527
   0.72225257  0.05549498  0.29097527
   0.72244805  0.38877591  0.29068981
   0.05549498  0.72225251  0.29097527
   0.05549845  0.05549857  0.29075405
   0.05549857  0.38900286  0.29075405
   0.38877603  0.72244805  0.29068981
   0.38900286  0.05549857  0.29075405
   0.38877603  0.38877591  0.29068981
   0.83333337  0.83333331  0.35437864
   0.83282025  0.16675837  0.35440375
   0.83282019  0.50042143  0.35440375
   0.16675826  0.83282025  0.35440375
   0.16666663  0.16666675  0.35425550
   0.16675826  0.50042143  0.35440375
   0.50042143  0.83282025  0.35440375
   0.50042143  0.16675837  0.35440375
   0.50000012  0.50000000  0.35431226
   0.94516045  0.94516051  0.40011010
   0.94362105  0.27818947  0.39703000
   0.94516051  0.60967898  0.40011010
   0.27818947  0.94362111  0.39703000
   0.27818947  0.27818947  0.39703000
   0.28001517  0.60999235  0.39992644
   0.60967910  0.94516051  0.40011010
   0.60999259  0.28001517  0.39992644
   0.60999235  0.60999235  0.39992644
   0.27789280  0.44421436  0.05472758
   0.27789277  0.77789283  0.05472758
   0.27799145  0.11100432  0.05495276
   0.61111714  0.44444143  0.05478331
   0.61100420  0.77799148  0.05495276
   0.61100426  0.11100432  0.05495276
   0.94444146  0.44444143  0.05478331
   0.94421433  0.77789283  0.05472758
   0.94444146  0.11111720  0.05478331
   0.38862111  0.55568946  0.12623406
   0.38902623  0.88902626  0.12637152
   0.38902617  0.22194760  0.12637152
   0.72219236  0.55561515  0.12639788
   0.72194748  0.88902626  0.12637152
   0.72219236  0.22219254  0.12639788
   0.05568934  0.55568946  0.12623406
   0.05568946  0.88862114  0.12623406
   0.05561504  0.22219254  0.12639788
   0.50011728  0.66696242  0.17041109
   0.49999994  0.00000000  0.17052180
   0.50011728  0.33292019  0.17041109
   0.83292030  0.66696242  0.17041109
   0.83292024  0.00011728  0.17041109
   0.83333337  0.33333325  0.17060111
   0.16666675  0.66666663  0.17025594
   0.16696242  0.00011728  0.17041109
   0.16696254  0.33292019  0.17041109
   0.61106649  0.77786690  0.22941744
   0.61106655  0.11106661  0.22941744
   0.61127170  0.44436409  0.22958284
   0.94410071  0.77794965  0.22945592
   0.94436415  0.11127182  0.22958284
   0.94436409  0.44436409  0.22958284
   0.27794965  0.77794965  0.22945592
   0.27786690  0.11106661  0.22941744
   0.27794953  0.44410071  0.22945592
   0.72244805  0.88877597  0.29068981
   0.72225245  0.22225263  0.29097527
   0.72225251  0.55549498  0.29097527
   0.05549857  0.88900292  0.29075405
   0.05549487  0.22225263  0.29097527
   0.05549857  0.55549857  0.29075405
   0.38877603  0.88877597  0.29068981
   0.38877579  0.22244817  0.29068981
   0.38900286  0.55549857  0.29075405
   0.83282025  0.00042143  0.35440375
   0.83333337  0.33333325  0.35437864
   0.83282025  0.66675826  0.35440375
   0.16675826  0.00042143  0.35440375
   0.16675837  0.33282019  0.35440375
   0.16666663  0.66666663  0.35425550
   0.49999988  0.00000000  0.35431226
   0.50042143  0.33282019  0.35440375
   0.50042143  0.66675826  0.35440375
   0.94516051  0.10967910  0.40011010
   0.94516045  0.44516045  0.40011010
   0.94362111  0.77818947  0.39703000
   0.28001517  0.10999247  0.39992644
   0.27818935  0.44362105  0.39703000
   0.27818935  0.77818947  0.39703000
   0.60999235  0.10999247  0.39992644
   0.60967910  0.44516045  0.40011010
   0.60999247  0.78001517  0.39992644
   0.44421436  0.27789283  0.05472758
   0.44444143  0.61111720  0.05478331
   0.44444143  0.94444146  0.05478331
   0.77789283  0.27789283  0.05472758
   0.77799142  0.61100432  0.05495276
   0.77789283  0.94421439  0.05472758
   0.11100432  0.27799148  0.05495276
   0.11100420  0.61100432  0.05495276
   0.11111708  0.94444146  0.05478331
   0.55568946  0.38862114  0.12623406
   0.55561515  0.72219242  0.12639788
   0.55568940  0.05568946  0.12623406
   0.88902620  0.38902626  0.12637152
   0.88902632  0.72194748  0.12637152
   0.88862114  0.05568946  0.12623406
   0.22194748  0.38902626  0.12637152
   0.22219242  0.72219242  0.12639788
   0.22219242  0.05561515  0.12639788
   0.66696248  0.50011728  0.17041109
   0.66696242  0.83292024  0.17041109
   0.66666669  0.16666675  0.17025594
  -0.00000000  0.50000000  0.17052180
   0.00011728  0.83292024  0.17041109
   0.00011728  0.16696254  0.17041109
   0.33292019  0.50011728  0.17041109
   0.33333337  0.83333331  0.17060111
   0.33292019  0.16696254  0.17041109
   0.77786684  0.61106661  0.22941744
   0.77794965  0.94410077  0.22945592
   0.77794965  0.27794965  0.22945592
   0.11106649  0.61106661  0.22941744
   0.11127170  0.94436415  0.22958284
   0.11106661  0.27786690  0.22941744
   0.44436409  0.61127182  0.22958284
   0.44436409  0.94436415  0.22958284
   0.44410083  0.27794965  0.22945592
   0.88877603  0.72244805  0.29068981
   0.88900292  0.05549857  0.29075405
   0.88877591  0.38877591  0.29068981
   0.22225251  0.72225251  0.29097527
   0.22225251  0.05549498  0.29097527
   0.22244805  0.38877591  0.29068981
   0.55549487  0.72225251  0.29097527
   0.55549857  0.05549857  0.29075405
   0.55549869  0.38900286  0.29075405
   0.00042143  0.83282025  0.35440375
   0.00042143  0.16675837  0.35440375
  -0.00000000  0.50000000  0.35431226
   0.33333337  0.83333331  0.35437864
   0.33282019  0.16675837  0.35440375
   0.33282031  0.50042143  0.35440375
   0.66675837  0.83282025  0.35440375
   0.66666675  0.16666675  0.35425550
   0.66675826  0.50042143  0.35440375
   0.10967898  0.94516051  0.40011010
   0.10999247  0.28001517  0.39992644
   0.10999247  0.60999235  0.39992644
   0.44516045  0.94516051  0.40011010
   0.44362117  0.27818947  0.39703000
   0.44516057  0.60967898  0.40011010
   0.77818959  0.94362111  0.39703000
   0.77818947  0.27818947  0.39703000
   0.78001517  0.60999235  0.39992644
  -0.00000000  0.00000000  0.44002541
  -0.00000000  0.00000000  0.47345471
  -0.00000000  0.00000000  0.50375771
  -0.00000000  0.00000000  0.54562961
   0.00222684  0.12659147  0.44239066
  -0.00104406  0.12566451  0.47303193
  -0.00059806  0.12568192  0.50572195
  -0.00159898  0.12489033  0.54082718
   0.00484173  0.24757914  0.44506214
  -0.00137455  0.25068728  0.47307289
  -0.00057243  0.25028621  0.50541424
  -0.00261982  0.25130991  0.54115198
   0.00222684  0.37118169  0.44239066
  -0.00104406  0.37537955  0.47303193
  -0.00059806  0.37491614  0.50572195
  -0.00159898  0.37670865  0.54082718
  -0.00000000  0.50000000  0.44002541
  -0.00000000  0.50000000  0.47345471
  -0.00000000  0.50000000  0.50375771
  -0.00000000  0.50000000  0.54562961
   0.00222684  0.62659147  0.44239066
  -0.00104406  0.62566451  0.47303193