<?xml version="1.0" encoding="ISO-8859-1"?>
<modeling>
 <generator>
  <i name="program" type="string">vasp </i>
  <i name="version" type="string">6.2.1  </i>
  <i name="subversion" type="string">16May21 (build Jun 16 2021 03:23:30) complex                          parallel </i>
  <i name="platform" type="string">LinuxPGI </i>
  <i name="date" type="string">2022 04 25 </i>
  <i name="time" type="string">11:32:41 </i>
 </generator>
 <incar>
  <i type="string" name="SYSTEM">NiAl</i>
  <i type="int" name="ISTART">     0</i>
  <i type="int" name="NELMIN">     6</i>
  <i type="int" name="IBRION">     2</i>
  <i name="EDIFF">      0.00000500</i>
  <i type="int" name="NSW">    40</i>
  <i type="int" name="ISIF">     1</i>
  <i name="ENCUT">    360.00000000</i>
  <i name="POTIM">      0.20000000</i>
  <i type="string" name="LREAL">Auto</i>
  <i type="logical" name="LPLANE"> T  </i>
  <i type="int" name="ISMEAR">     0</i>
  <i name="SIGMA">      0.05000000</i>
  <i type="logical" name="LWAVE"> F  </i>
  <i type="logical" name="LCHARG"> F  </i>
  <i type="int" name="IVDW">    12</i>
 </incar>
 <primitive_cell>
  <structure name="primitive_cell" >
   <crystal>
    <varray name="basis" >
     <v>       0.00000000     -17.18057346       0.00000000 </v>
     <v>       0.00000000      -8.59028673     -14.87881307 </v>
     <v>      30.00000000       0.00000000       0.00000000 </v>
    </varray>
    <i name="volume">   7668.79622957 </i>
    <varray name="rec_basis" >
     <v>       0.00000000      -0.05820527       0.03360483 </v>
     <v>       0.00000000       0.00000000      -0.06720966 </v>
     <v>       0.03333333       0.00000000       0.00000000 </v>
    </varray>
   </crystal>
   <varray name="positions" >
    <v>       0.44444444       0.44444444       0.07873473 </v>
    <v>       0.44444444       0.77777778       0.07873473 </v>
    <v>       0.44444444       0.11111111       0.07873473 </v>
    <v>       0.77777778       0.44444444       0.07873473 </v>
    <v>       0.77777778       0.77777778       0.07873473 </v>
    <v>       0.77777778       0.11111111       0.07873473 </v>
    <v>       0.11111111       0.44444444       0.07873473 </v>
    <v>       0.11111111       0.77777778       0.07873473 </v>
    <v>       0.11111111       0.11111111       0.07873473 </v>
    <v>       0.55555556       0.55555556       0.15702584 </v>
    <v>       0.55555556       0.88888889       0.15702584 </v>
    <v>       0.55555556       0.22222222       0.15702584 </v>
    <v>       0.88888889       0.55555556       0.15702584 </v>
    <v>       0.88888889       0.88888889       0.15702584 </v>
    <v>       0.88888889       0.22222222       0.15702584 </v>
    <v>       0.22222222       0.55555556       0.15702584 </v>
    <v>       0.22222222       0.88888889       0.15702584 </v>
    <v>       0.22222222       0.22222222       0.15702584 </v>
    <v>       0.66666667       0.66666667       0.23375740 </v>
    <v>       0.66666667       0.00000000       0.23375740 </v>
    <v>       0.66666667       0.33333333       0.23375740 </v>
    <v>       0.00000000       0.66666667       0.23375740 </v>
    <v>       0.00000000       0.00000000       0.23375740 </v>
    <v>       0.00000000       0.33333333       0.23375740 </v>
    <v>       0.33333333       0.66666667       0.23375740 </v>
    <v>       0.33333333       0.00000000       0.23375740 </v>
    <v>       0.33333333       0.33333333       0.23375740 </v>
    <v>       0.77777778       0.77777778       0.31173066 </v>
    <v>       0.77777778       0.11111111       0.31173066 </v>
    <v>       0.77777778       0.44444444       0.31173066 </v>
    <v>       0.11111111       0.77777778       0.31173066 </v>
    <v>       0.11111111       0.11111111       0.31173066 </v>
    <v>       0.11111111       0.44444444       0.31173066 </v>
    <v>       0.44444444       0.77777778       0.31173066 </v>
    <v>       0.44444444       0.11111111       0.31173066 </v>
    <v>       0.44444444       0.44444444       0.31173066 </v>
    <v>       0.88888889       0.88888889       0.38970391 </v>
    <v>       0.88888889       0.22222222       0.38970391 </v>
    <v>       0.88888889       0.55555556       0.38970391 </v>
    <v>       0.22222222       0.88888889       0.38970391 </v>
    <v>       0.22222222       0.22222222       0.38970391 </v>
    <v>       0.22222222       0.55555556       0.38970391 </v>
    <v>       0.55555556       0.88888889       0.38970391 </v>
    <v>       0.55555556       0.22222222       0.38970391 </v>
    <v>       0.55555556       0.55555556       0.38970391 </v>
    <v>       0.00000000       0.00000000       0.46643547 </v>
    <v>       0.00000000       0.33333333       0.46643547 </v>
    <v>       0.00000000       0.66666667       0.46643547 </v>
    <v>       0.33333333       0.00000000       0.46643547 </v>
    <v>       0.33333333       0.33333333       0.46643547 </v>
    <v>       0.33333333       0.66666667       0.46643547 </v>
    <v>       0.66666667       0.00000000       0.46643547 </v>
    <v>       0.66666667       0.33333333       0.46643547 </v>
    <v>       0.66666667       0.66666667       0.46643547 </v>
    <v>       0.11111111       0.11111111       0.54472658 </v>
    <v>       0.11111111       0.44444444       0.54472658 </v>
    <v>       0.11111111       0.77777778       0.54472658 </v>
    <v>       0.44444444       0.11111111       0.54472658 </v>
    <v>       0.44444444       0.44444444       0.54472658 </v>
    <v>       0.44444444       0.77777778       0.54472658 </v>
    <v>       0.77777778       0.11111111       0.54472658 </v>
    <v>       0.77777778       0.44444444       0.54472658 </v>
    <v>       0.77777778       0.77777778       0.54472658 </v>
    <v>       0.27777778       0.27777778       0.07873473 </v>
    <v>       0.27777778       0.61111111       0.07873473 </v>
    <v>       0.27777778       0.94444444       0.07873473 </v>
    <v>       0.61111111       0.27777778       0.07873473 </v>
    <v>       0.61111111       0.61111111       0.07873473 </v>
    <v>       0.61111111       0.94444444       0.07873473 </v>
    <v>       0.94444444       0.27777778       0.07873473 </v>
    <v>       0.94444444       0.61111111       0.07873473 </v>
    <v>       0.94444444       0.94444444       0.07873473 </v>
    <v>       0.38888889       0.38888889       0.15702584 </v>
    <v>       0.38888889       0.72222222       0.15702584 </v>
    <v>       0.38888889       0.05555556       0.15702584 </v>
    <v>       0.72222222       0.38888889       0.15702584 </v>
    <v>       0.72222222       0.72222222       0.15702584 </v>
    <v>       0.72222222       0.05555556       0.15702584 </v>
    <v>       0.05555556       0.38888889       0.15702584 </v>
    <v>       0.05555556       0.72222222       0.15702584 </v>
    <v>       0.05555556       0.05555556       0.15702584 </v>
    <v>       0.50000000       0.50000000       0.23375740 </v>
    <v>       0.50000000       0.83333333       0.23375740 </v>
    <v>       0.50000000       0.16666667       0.23375740 </v>
    <v>       0.83333333       0.50000000       0.23375740 </v>
    <v>       0.83333333       0.83333333       0.23375740 </v>
    <v>       0.83333333       0.16666667       0.23375740 </v>
    <v>       0.16666667       0.50000000       0.23375740 </v>
    <v>       0.16666667       0.83333333       0.23375740 </v>
    <v>       0.16666667       0.16666667       0.23375740 </v>
    <v>       0.61111111       0.61111111       0.31173066 </v>
    <v>       0.61111111       0.94444444       0.31173066 </v>
    <v>       0.61111111       0.27777778       0.31173066 </v>
    <v>       0.94444444       0.61111111       0.31173066 </v>
    <v>       0.94444444       0.94444444       0.31173066 </v>
    <v>       0.94444444       0.27777778       0.31173066 </v>
    <v>       0.27777778       0.61111111       0.31173066 </v>
    <v>       0.27777778       0.94444444       0.31173066 </v>
    <v>       0.27777778       0.27777778       0.31173066 </v>
    <v>       0.72222222       0.72222222       0.38970391 </v>
    <v>       0.72222222       0.05555556       0.38970391 </v>
    <v>       0.72222222       0.38888889       0.38970391 </v>
    <v>       0.05555556       0.72222222       0.38970391 </v>
    <v>       0.05555556       0.05555556       0.38970391 </v>
    <v>       0.05555556       0.38888889       0.38970391 </v>
    <v>       0.38888889       0.72222222       0.38970391 </v>
    <v>       0.38888889       0.05555556       0.38970391 </v>
    <v>       0.38888889       0.38888889       0.38970391 </v>
    <v>       0.83333333       0.83333333       0.46643547 </v>
    <v>       0.83333333       0.16666667       0.46643547 </v>
    <v>       0.83333333       0.50000000       0.46643547 </v>
    <v>       0.16666667       0.83333333       0.46643547 </v>
    <v>       0.16666667       0.16666667       0.46643547 </v>
    <v>       0.16666667       0.50000000       0.46643547 </v>
    <v>       0.50000000       0.83333333       0.46643547 </v>
    <v>       0.50000000       0.16666667       0.46643547 </v>
    <v>       0.50000000       0.50000000       0.46643547 </v>
    <v>       0.94444444       0.94444444       0.54472658 </v>
    <v>       0.94444444       0.27777778       0.54472658 </v>
    <v>       0.94444444       0.61111111       0.54472658 </v>
    <v>       0.27777778       0.94444444       0.54472658 </v>
    <v>       0.27777778       0.27777778       0.54472658 </v>
    <v>       0.27777778       0.61111111       0.54472658 </v>
    <v>       0.61111111       0.94444444       0.54472658 </v>
    <v>       0.61111111       0.27777778       0.54472658 </v>
    <v>       0.61111111       0.61111111       0.54472658 </v>
    <v>       0.27777778       0.44444444       0.07873473 </v>
    <v>       0.27777778       0.77777778       0.07873473 </v>
    <v>       0.27777778       0.11111111       0.07873473 </v>
    <v>       0.61111111       0.44444444       0.07873473 </v>
    <v>       0.61111111       0.77777778       0.07873473 </v>
    <v>       0.61111111       0.11111111       0.07873473 </v>
    <v>       0.94444444       0.44444444       0.07873473 </v>
    <v>       0.94444444       0.77777778       0.07873473 </v>
    <v>       0.94444444       0.11111111       0.07873473 </v>
    <v>       0.38888889       0.55555556       0.15702584 </v>
    <v>       0.38888889       0.88888889       0.15702584 </v>
    <v>       0.38888889       0.22222222       0.15702584 </v>
    <v>       0.72222222       0.55555556       0.15702584 </v>
    <v>       0.72222222       0.88888889       0.15702584 </v>
    <v>       0.72222222       0.22222222       0.15702584 </v>
    <v>       0.05555556       0.55555556       0.15702584 </v>
    <v>       0.05555556       0.88888889       0.15702584 </v>
    <v>       0.05555556       0.22222222       0.15702584 </v>
    <v>       0.50000000       0.66666667       0.23375740 </v>
    <v>       0.50000000       0.00000000       0.23375740 </v>
    <v>       0.50000000       0.33333333       0.23375740 </v>
    <v>       0.83333333       0.66666667       0.23375740 </v>
    <v>       0.83333333       0.00000000       0.23375740 </v>
    <v>       0.83333333       0.33333333       0.23375740 </v>
    <v>       0.16666667       0.66666667       0.23375740 </v>
    <v>       0.16666667       0.00000000       0.23375740 </v>
    <v>       0.16666667       0.33333333       0.23375740 </v>
    <v>       0.61111111       0.77777778       0.31173066 </v>
    <v>       0.61111111       0.11111111       0.31173066 </v>
    <v>       0.61111111       0.44444444       0.31173066 </v>
    <v>       0.94444444       0.77777778       0.31173066 </v>
    <v>       0.94444444       0.11111111       0.31173066 </v>
    <v>       0.94444444       0.44444444       0.31173066 </v>
    <v>       0.27777778       0.77777778       0.31173066 </v>
    <v>       0.27777778       0.11111111       0.31173066 </v>
    <v>       0.27777778       0.44444444       0.31173066 </v>
    <v>       0.72222222       0.88888889       0.38970391 </v>
    <v>       0.72222222       0.22222222       0.38970391 </v>
    <v>       0.72222222       0.55555556       0.38970391 </v>
    <v>       0.05555556       0.88888889       0.38970391 </v>
    <v>       0.05555556       0.22222222       0.38970391 </v>
    <v>       0.05555556       0.55555556       0.38970391 </v>
    <v>       0.38888889       0.88888889       0.38970391 </v>
    <v>       0.38888889       0.22222222       0.38970391 </v>
    <v>       0.38888889       0.55555556       0.38970391 </v>
    <v>       0.83333333       0.00000000       0.46643547 </v>
    <v>       0.83333333       0.33333333       0.46643547 </v>
    <v>       0.83333333       0.66666667       0.46643547 </v>
    <v>       0.16666667       0.00000000       0.46643547 </v>
    <v>       0.16666667       0.33333333       0.46643547 </v>
    <v>       0.16666667       0.66666667       0.46643547 </v>
    <v>       0.50000000       0.00000000       0.46643547 </v>
    <v>       0.50000000       0.33333333       0.46643547 </v>
    <v>       0.50000000       0.66666667       0.46643547 </v>
    <v>       0.94444444       0.11111111       0.54472658 </v>
    <v>       0.94444444       0.44444444       0.54472658 </v>
    <v>       0.94444444       0.77777778       0.54472658 </v>
    <v>       0.27777778       0.11111111       0.54472658 </v>
    <v>       0.27777778       0.44444444       0.54472658 </v>
    <v>       0.27777778       0.77777778       0.54472658 </v>
    <v>       0.61111111       0.11111111       0.54472658 </v>
    <v>       0.61111111       0.44444444       0.54472658 </v>
    <v>       0.61111111       0.77777778       0.54472658 </v>
    <v>       0.44444444       0.27777778       0.07873473 </v>
    <v>       0.44444444       0.61111111       0.07873473 </v>
    <v>       0.44444444       0.94444444       0.07873473 </v>
    <v>       0.77777778       0.27777778       0.07873473 </v>
    <v>       0.77777778       0.61111111       0.07873473 </v>
    <v>       0.77777778       0.94444444       0.07873473 </v>
    <v>       0.11111111       0.27777778       0.07873473 </v>
    <v>       0.11111111       0.61111111       0.07873473 </v>
    <v>       0.11111111       0.94444444       0.07873473 </v>
    <v>       0.55555556       0.38888889       0.15702584 </v>
    <v>       0.55555556       0.72222222       0.15702584 </v>
    <v>       0.55555556       0.05555556       0.15702584 </v>
    <v>       0.88888889       0.38888889       0.15702584 </v>
    <v>       0.88888889       0.72222222       0.15702584 </v>
    <v>       0.88888889       0.05555556       0.15702584 </v>
    <v>       0.22222222       0.38888889       0.15702584 </v>
    <v>       0.22222222       0.72222222       0.15702584 </v>
    <v>       0.22222222       0.05555556       0.15702584 </v>
    <v>       0.66666667       0.50000000       0.23375740 </v>
    <v>       0.66666667       0.83333333       0.23375740 </v>
    <v>       0.66666667       0.16666667       0.23375740 </v>
    <v>       0.00000000       0.50000000       0.23375740 </v>
    <v>       0.00000000       0.83333333       0.23375740 </v>
    <v>       0.00000000       0.16666667       0.23375740 </v>
    <v>       0.33333333       0.50000000       0.23375740 </v>
    <v>       0.33333333       0.83333333       0.23375740 </v>
    <v>       0.33333333       0.16666667       0.23375740 </v>
    <v>       0.77777778       0.61111111       0.31173066 </v>
    <v>       0.77777778       0.94444444       0.31173066 </v>
    <v>       0.77777778       0.27777778       0.31173066 </v>
    <v>       0.11111111       0.61111111       0.31173066 </v>
    <v>       0.11111111       0.94444444       0.31173066 </v>
    <v>       0.11111111       0.27777778       0.31173066 </v>
    <v>       0.44444444       0.61111111       0.31173066 </v>
    <v>       0.44444444       0.94444444       0.31173066 </v>
    <v>       0.44444444       0.27777778       0.31173066 </v>
    <v>       0.88888889       0.72222222       0.38970391 </v>
    <v>       0.88888889       0.05555556       0.38970391 </v>
    <v>       0.88888889       0.38888889       0.38970391 </v>
    <v>       0.22222222       0.72222222       0.38970391 </v>
    <v>       0.22222222       0.05555556       0.38970391 </v>
    <v>       0.22222222       0.38888889       0.38970391 </v>
    <v>       0.55555556       0.72222222       0.38970391 </v>
    <v>       0.55555556       0.05555556       0.38970391 </v>
    <v>       0.55555556       0.38888889       0.38970391 </v>
    <v>       0.00000000       0.83333333       0.46643547 </v>
    <v>       0.00000000       0.16666667       0.46643547 </v>
    <v>       0.00000000       0.50000000       0.46643547 </v>
    <v>       0.33333333       0.83333333       0.46643547 </v>
    <v>       0.33333333       0.16666667       0.46643547 </v>
    <v>       0.33333333       0.50000000       0.46643547 </v>
    <v>       0.66666667       0.83333333       0.46643547 </v>
    <v>       0.66666667       0.16666667       0.46643547 </v>
    <v>       0.66666667       0.50000000       0.46643547 </v>
    <v>       0.11111111       0.94444444       0.54472658 </v>
    <v>       0.11111111       0.27777778       0.54472658 </v>
    <v>       0.11111111       0.61111111       0.54472658 </v>
    <v>       0.44444444       0.94444444       0.54472658 </v>
    <v>       0.44444444       0.27777778       0.54472658 </v>
    <v>       0.44444444       0.61111111       0.54472658 </v>
    <v>       0.77777778       0.94444444       0.54472658 </v>
    <v>       0.77777778       0.27777778       0.54472658 </v>
    <v>       0.77777778       0.61111111       0.54472658 </v>
    <v>       0.38888889       0.55555556       0.49000000 </v>
   </varray>
  </structure>
  <varray name="primitive_index" >
   <v type="int" >        1 </v>
   <v type="int" >        2 </v>
   <v type="int" >        3 </v>
   <v type="int" >        4 </v>
   <v type="int" >        5 </v>
   <v type="int" >        6 </v>
   <v type="int" >        7 </v>
   <v type="int" >        8 </v>
   <v type="int" >        9 </v>
   <v type="int" >       10 </v>
   <v type="int" >       11 </v>
   <v type="int" >       12 </v>
   <v type="int" >       13 </v>
   <v type="int" >       14 </v>
   <v type="int" >       15 </v>
   <v type="int" >       16 </v>
   <v type="int" >       17 </v>
   <v type="int" >       18 </v>
   <v type="int" >       19 </v>
   <v type="int" >       20 </v>
   <v type="int" >       21 </v>
   <v type="int" >       22 </v>
   <v type="int" >       23 </v>
   <v type="int" >       24 </v>
   <v type="int" >       25 </v>
   <v type="int" >       26 </v>
   <v type="int" >       27 </v>
   <v type="int" >       28 </v>
   <v type="int" >       29 </v>
   <v type="int" >       30 </v>
   <v type="int" >       31 </v>
   <v type="int" >       32 </v>
   <v type="int" >       33 </v>
   <v type="int" >       34 </v>
   <v type="int" >       35 </v>
   <v type="int" >       36 </v>
   <v type="int" >       37 </v>
   <v type="int" >       38 </v>
   <v type="int" >       39 </v>
   <v type="int" >       40 </v>
   <v type="int" >       41 </v>
   <v type="int" >       42 </v>
   <v type="int" >       43 </v>
   <v type="int" >       44 </v>
   <v type="int" >       45 </v>
   <v type="int" >       46 </v>
   <v type="int" >       47 </v>
   <v type="int" >       48 </v>
   <v type="int" >       49 </v>
   <v type="int" >       50 </v>
   <v type="int" >       51 </v>
   <v type="int" >       52 </v>
   <v type="int" >       53 </v>
   <v type="int" >       54 </v>
   <v type="int" >       55 </v>
   <v type="int" >       56 </v>
   <v type="int" >       57 </v>
   <v type="int" >       58 </v>
   <v type="int" >       59 </v>
   <v type="int" >       60 </v>
   <v type="int" >       61 </v>
   <v type="int" >       62 </v>
   <v type="int" >       63 </v>
   <v type="int" >       64 </v>
   <v type="int" >       65 </v>
   <v type="int" >       66 </v>
   <v type="int" >       67 </v>
   <v type="int" >       68 </v>
   <v type="int" >       69 </v>
   <v type="int" >       70 </v>
   <v type="int" >       71 </v>
   <v type="int" >       72 </v>
   <v type="int" >       73 </v>
   <v type="int" >       74 </v>
   <v type="int" >       75 </v>
   <v type="int" >       76 </v>
   <v type="int" >       77 </v>
   <v type="int" >       78 </v>
   <v type="int" >       79 </v>
   <v type="int" >       80 </v>
   <v type="int" >       81 </v>
   <v type="int" >       82 </v>
   <v type="int" >       83 </v>
   <v type="int" >       84 </v>
   <v type="int" >       85 </v>
   <v type="int" >       86 </v>
   <v type="int" >       87 </v>
   <v type="int" >       88 </v>
   <v type="int" >       89 </v>
   <v type="int" >       90 </v>
   <v type="int" >       91 </v>
   <v type="int" >       92 </v>
   <v type="int" >       93 </v>
   <v type="int" >       94 </v>
   <v type="int" >       95 </v>
   <v type="int" >       96 </v>
   <v type="int" >       97 </v>
   <v type="int" >       98 </v>
   <v type="int" >       99 </v>
   <v type="int" >      100 </v>
   <v type="int" >      101 </v>
   <v type="int" >      102 </v>
   <v type="int" >      103 </v>
   <v type="int" >      104 </v>
   <v type="int" >      105 </v>
   <v type="int" >      106 </v>
   <v type="int" >      107 </v>
   <v type="int" >      108 </v>
   <v type="int" >      109 </v>
   <v type="int" >      110 </v>
   <v type="int" >      111 </v>
   <v type="int" >      112 </v>
   <v type="int" >      113 </v>
   <v type="int" >      114 </v>
   <v type="int" >      115 </v>
   <v type="int" >      116 </v>
   <v type="int" >      117 </v>
   <v type="int" >      118 </v>
   <v type="int" >      119 </v>
   <v type="int" >      120 </v>
   <v type="int" >      121 </v>
   <v type="int" >      122 </v>
   <v type="int" >      123 </v>
   <v type="int" >      124 </v>
   <v type="int" >      125 </v>
   <v type="int" >      126 </v>
   <v type="int" >      127 </v>
   <v type="int" >      128 </v>
   <v type="int" >      129 </v>
   <v type="int" >      130 </v>
   <v type="int" >      131 </v>
   <v type="int" >      132 </v>
   <v type="int" >      133 </v>
   <v type="int" >      134 </v>
   <v type="int" >      135 </v>
   <v type="int" >      136 </v>
   <v type="int" >      137 </v>
   <v type="int" >      138 </v>
   <v type="int" >      139 </v>
   <v type="int" >      140 </v>
   <v type="int" >      141 </v>
   <v type="int" >      142 </v>
   <v type="int" >      143 </v>
   <v type="int" >      144 </v>
   <v type="int" >      145 </v>
   <v type="int" >      146 </v>
   <v type="int" >      147 </v>
   <v type="int" >      148 </v>
   <v type="int" >      149 </v>
   <v type="int" >      150 </v>
   <v type="int" >      151 </v>
   <v type="int" >      152 </v>
   <v type="int" >      153 </v>
   <v type="int" >      154 </v>
   <v type="int" >      155 </v>
   <v type="int" >      156 </v>
   <v type="int" >      157 </v>
   <v type="int" >      158 </v>
   <v type="int" >      159 </v>
   <v type="int" >      160 </v>
   <v type="int" >      161 </v>
   <v type="int" >      162 </v>
   <v type="int" >      163 </v>
   <v type="int" >      164 </v>
   <v type="int" >      165 </v>
   <v type="int" >      166 </v>
   <v type="int" >      167 </v>
   <v type="int" >      168 </v>
   <v type="int" >      169 </v>
   <v type="int" >      170 </v>
   <v type="int" >      171 </v>
   <v type="int" >      172 </v>
   <v type="int" >      173 </v>
   <v type="int" >      174 </v>
   <v type="int" >      175 </v>
   <v type="int" >      176 </v>
   <v type="int" >      177 </v>
   <v type="int" >      178 </v>
   <v type="int" >      179 </v>
   <v type="int" >      180 </v>
   <v type="int" >      181 </v>
   <v type="int" >      182 </v>
   <v type="int" >      183 </v>
   <v type="int" >      184 </v>
   <v type="int" >      185 </v>
   <v type="int" >      186 </v>
   <v type="int" >      187 </v>
   <v type="int" >      188 </v>
   <v type="int" >      189 </v>
   <v type="int" >      190 </v>
   <v type="int" >      191 </v>
   <v type="int" >      192 </v>
   <v type="int" >      193 </v>
   <v type="int" >      194 </v>
   <v type="int" >      195 </v>
   <v type="int" >      196 </v>
   <v type="int" >      197 </v>
   <v type="int" >      198 </v>
   <v type="int" >      199 </v>
   <v type="int" >      200 </v>
   <v type="int" >      201 </v>
   <v type="int" >      202 </v>
   <v type="int" >      203 </v>
   <v type="int" >      204 </v>
   <v type="int" >      205 </v>
   <v type="int" >      206 </v>
   <v type="int" >      207 </v>
   <v type="int" >      208 </v>
   <v type="int" >      209 </v>
   <v type="int" >      210 </v>
   <v type="int" >      211 </v>
   <v type="int" >      212 </v>
   <v type="int" >      213 </v>
   <v type="int" >      214 </v>
   <v type="int" >      215 </v>
   <v type="int" >      216 </v>
   <v type="int" >      217 </v>
   <v type="int" >      218 </v>
   <v type="int" >      219 </v>
   <v type="int" >      220 </v>
   <v type="int" >      221 </v>
   <v type="int" >      222 </v>
   <v type="int" >      223 </v>
   <v type="int" >      224 </v>
   <v type="int" >      225 </v>
   <v type="int" >      226 </v>
   <v type="int" >      227 </v>
   <v type="int" >      228 </v>
   <v type="int" >      229 </v>
   <v type="int" >      230 </v>
   <v type="int" >      231 </v>
   <v type="int" >      232 </v>
   <v type="int" >      233 </v>
   <v type="int" >      234 </v>
   <v type="int" >      235 </v>
   <v type="int" >      236 </v>
   <v type="int" >      237 </v>
   <v type="int" >      238 </v>
   <v type="int" >      239 </v>
   <v type="int" >      240 </v>
   <v type="int" >      241 </v>
   <v type="int" >      242 </v>
   <v type="int" >      243 </v>
   <v type="int" >      244 </v>
   <v type="int" >      245 </v>
   <v type="int" >      246 </v>
   <v type="int" >      247 </v>
   <v type="int" >      248 </v>
   <v type="int" >      249 </v>
   <v type="int" >      250 </v>
   <v type="int" >      251 </v>
   <v type="int" >      252 </v>
   <v type="int" >      253 </v>
  </varray>
 </primitive_cell>
 <kpoints>
  <generation param="Gamma">
   <v type="int" name="divisions">       2        2        1 </v>
   <v name="usershift">      0.00000000       0.00000000       0.00000000 </v>
   <v name="genvec1">      0.50000000       0.00000000       0.00000000 </v>
   <v name="genvec2">      0.00000000       0.50000000       0.00000000 </v>
   <v name="genvec3">      0.00000000       0.00000000       1.00000000 </v>
   <v name="shift">      0.00000000       0.00000000       0.00000000 </v>
  </generation>
  <varray name="kpointlist" >
   <v>       0.00000000       0.00000000       0.00000000 </v>
   <v>       0.50000000       0.00000000       0.00000000 </v>
  </varray>
  <varray name="weights" >
   <v>       0.25000000 </v>
   <v>       0.75000000 </v>
  </varray>
 </kpoints>
 <parameters>
  <separator name="general" >
   <i type="string" name="SYSTEM">NiAl</i>
   <i type="logical" name="LCOMPAT"> F  </i>
  </separator>
  <separator name="electronic" >
   <i type="string" name="PREC">normal</i>
   <i name="ENMAX">    360.00000000</i>
   <i name="ENAUG">   1139.60900000</i>
   <i name="EDIFF">      0.00000500</i>
   <i type="int" name="IALGO">    38</i>
   <i type="int" name="IWAVPR">    11</i>
   <i type="int" name="NBANDS">   508</i>
   <i type="int" name="NBANDSLOW">    -1</i>
   <i type="int" name="NBANDSHIGH">    -1</i>
   <i name="NELECT">    762.00000000</i>
   <i type="int" name="TURBO">     0</i>
   <i type="int" name="IRESTART">     0</i>
   <i type="int" name="NREBOOT">     0</i>
   <i type="int" name="NMIN">     0</i>
   <i name="EREF">      0.00000000</i>
   <separator name="electronic smearing" >
    <i type="int" name="ISMEAR">     0</i>
    <i name="SIGMA">      0.05000000</i>
    <i name="KSPACING">      0.50000000</i>
    <i type="logical" name="KGAMMA"> T  </i>
    <i type="logical" name="KBLOWUP"> T  </i>
   </separator>
   <separator name="electronic projectors" >
    <i type="logical" name="LREAL"> T  </i>
    <v name="ROPT">     -0.00050000     -0.00050000</v>
    <i type="int" name="LMAXPAW">  -100</i>
    <i type="int" name="LMAXMIX">     2</i>
    <i type="logical" name="NLSPLINE"> F  </i>
   </separator>
   <separator name="electronic startup" >
    <i type="int" name="ISTART">     0</i>
    <i type="int" name="ICHARG">     2</i>
    <i type="int" name="INIWAV">     1</i>
   </separator>
   <separator name="electronic spin" >
    <i type="int" name="ISPIN">     1</i>
    <i type="logical" name="LNONCOLLINEAR"> F  </i>
    <v name="MAGMOM">      1.00000000      1.00000000      1.00000000      1.00000000      1.00000000      1.00000000      1.00000000      1.00000000      1.00000000      1.00000000      1.00000000      1.00000000      1.00000000      1.00000000      1.00000000      1.00000000      1.00000000      1.00000000      1.00000000      1.00000000
      1.00000000      1.00000000      1.00000000      1.00000000      1.00000000      1.00000000      1.00000000      1.00000000      1.00000000      1.00000000      1.00000000      1.00000000      1.00000000      1.00000000      1.00000000      1.00000000      1.00000000      1.00000000      1.00000000      1.00000000
      1.00000000      1.00000000      1.00000000      1.00000000      1.00000000      1.00000000      1.00000000      1.00000000      1.00000000      1.00000000      1.00000000      1.00000000      1.00000000      1.00000000      1.00000000      1.00000000      1.00000000      1.00000000      1.00000000      1.00000000
      1.00000000      1.00000000      1.00000000      1.00000000      1.00000000      1.00000000      1.00000000      1.00000000      1.00000000      1.00000000      1.00000000      1.00000000      1.00000000      1.00000000      1.00000000      1.00000000      1.00000000      1.00000000      1.00000000      1.00000000
      1.00000000      1.00000000      1.00000000      1.00000000      1.00000000      1.00000000      1.00000000      1.00000000      1.00000000      1.00000000      1.00000000      1.00000000      1.00000000      1.00000000      1.00000000      1.00000000      1.00000000      1.00000000      1.00000000      1.00000000
      1.00000000      1.00000000      1.00000000      1.00000000      1.00000000      1.00000000      1.00000000      1.00000000      1.00000000      1.00000000      1.00000000      1.00000000      1.00000000      1.00000000      1.00000000      1.00000000      1.00000000      1.00000000      1.00000000      1.00000000
      1.00000000      1.00000000      1.00000000      1.00000000      1.00000000      1.00000000      1.00000000      1.00000000      1.00000000      1.00000000      1.00000000      1.00000000      1.00000000      1.00000000      1.00000000      1.00000000      1.00000000      1.00000000      1.00000000      1.00000000
      1.00000000      1.00000000      1.00000000      1.00000000      1.00000000      1.00000000      1.00000000      1.00000000      1.00000000      1.00000000      1.00000000      1.00000000      1.00000000      1.00000000      1.00000000      1.00000000      1.00000000      1.00000000      1.00000000      1.00000000
      1.00000000      1.00000000      1.00000000      1.00000000      1.00000000      1.00000000      1.00000000      1.00000000      1.00000000      1.00000000      1.00000000      1.00000000      1.00000000      1.00000000      1.00000000      1.00000000      1.00000000      1.00000000      1.00000000      1.00000000
      1.00000000      1.00000000      1.00000000      1.00000000      1.00000000      1.00000000      1.00000000      1.00000000      1.00000000      1.00000000      1.00000000      1.00000000      1.00000000      1.00000000      1.00000000      1.00000000      1.00000000      1.00000000      1.00000000      1.00000000
      1.00000000      1.00000000      1.00000000      1.00000000      1.00000000      1.00000000      1.00000000      1.00000000      1.00000000      1.00000000      1.00000000      1.00000000      1.00000000      1.00000000      1.00000000      1.00000000      1.00000000      1.00000000      1.00000000      1.00000000
      1.00000000      1.00000000      1.00000000      1.00000000      1.00000000      1.00000000      1.00000000      1.00000000      1.00000000      1.00000000      1.00000000      1.00000000      1.00000000      1.00000000      1.00000000      1.00000000      1.00000000      1.00000000      1.00000000      1.00000000
      1.00000000      1.00000000      1.00000000      1.00000000      1.00000000      1.00000000      1.00000000      1.00000000      1.00000000      1.00000000      1.00000000      1.00000000      1.00000000</v>
    <i name="NUPDOWN">     -1.00000000</i>
    <i type="logical" name="LSORBIT"> F  </i>
    <v name="SAXIS">      0.00000000      0.00000000      1.00000000</v>
    <i type="logical" name="LSPIRAL"> F  </i>
    <v name="QSPIRAL">      0.00000000      0.00000000      0.00000000</v>
    <i type="logical" name="LZEROZ"> F  </i>
   </separator>
   <separator name="electronic exchange-correlation" >
    <i type="logical" name="LASPH"> F  </i>
    <i type="logical" name="LMETAGGA"> F  </i>
   </separator>
   <separator name="electronic convergence" >
    <i type="int" name="NELM">    60</i>
    <i type="int" name="NELMDL">    -5</i>
    <i type="int" name="NELMIN">     6</i>
    <i name="ENINI">    360.00000000</i>
    <separator name="electronic convergence detail" >
     <i type="logical" name="LDIAG"> T  </i>
     <i type="logical" name="LSUBROT"> F  </i>
     <i name="WEIMIN">      0.00100000</i>
     <i name="EBREAK">      0.00000000</i>
     <i name="DEPER">      0.30000000</i>
     <i type="int" name="NRMM">     4</i>
     <i name="TIME">      0.40000000</i>
    </separator>
   </separator>
   <separator name="electronic mixer" >
    <i name="AMIX">      0.40000000</i>
    <i name="BMIX">      1.00000000</i>
    <i name="AMIN">      0.10000000</i>
    <i name="AMIX_MAG">      1.60000000</i>
    <i name="BMIX_MAG">      1.00000000</i>
    <separator name="electronic mixer details" >
     <i type="int" name="IMIX">     4</i>
     <i type="logical" name="MIXFIRST"> F  </i>
     <i type="int" name="MAXMIX">   -45</i>
     <i name="WC">    100.00000000</i>
     <i type="int" name="INIMIX">     1</i>
     <i type="int" name="MIXPRE">     1</i>
     <i type="int" name="MREMOVE">     5</i>
    </separator>
   </separator>
   <separator name="electronic dipolcorrection" >
    <i type="logical" name="LDIPOL"> F  </i>
    <i type="logical" name="LMONO"> F  </i>
    <i type="int" name="IDIPOL">     0</i>
    <i name="EPSILON">      1.00000000</i>
    <v name="DIPOL">   -100.00000000   -100.00000000   -100.00000000</v>
    <i name="EFIELD">      0.00000000</i>
   </separator>
  </separator>
  <separator name="grids" >
   <i type="int" name="NGX">    80</i>
   <i type="int" name="NGY">    80</i>
   <i type="int" name="NGZ">   140</i>
   <i type="int" name="NGXF">   160</i>
   <i type="int" name="NGYF">   160</i>
   <i type="int" name="NGZF">   280</i>
   <i type="logical" name="ADDGRID"> F  </i>
  </separator>
  <separator name="ionic" >
   <i type="int" name="NSW">    40</i>
   <i type="int" name="IBRION">     2</i>
   <i type="int" name="MDALGO">     0</i>
   <i type="int" name="ISIF">     1</i>
   <i name="PSTRESS">      0.00000000</i>
   <i name="EDIFFG">      0.00005000</i>
   <i type="int" name="NFREE">     1</i>
   <i name="POTIM">      0.20000000</i>
   <i name="SMASS">     -3.00000000</i>
   <i name="SCALEE">      1.00000000</i>
  </separator>
  <separator name="ionic md" >
   <i name="TEBEG">      0.00010000</i>
   <i name="TEEND">      0.00010000</i>
   <i type="int" name="NBLOCK">     1</i>
   <i type="int" name="KBLOCK">    40</i>
   <i type="int" name="NPACO">   256</i>
   <i name="APACO">     16.00000000</i>
  </separator>
  <separator name="symmetry" >
   <i type="int" name="ISYM">     2</i>
   <i name="SYMPREC">      0.00001000</i>
  </separator>
  <separator name="dos" >
   <i type="int" name="LORBIT">     0</i>
   <v name="RWIGS">     -1.00000000     -1.00000000</v>
   <i type="int" name="NEDOS">   301</i>
   <i name="EMIN">     10.00000000</i>
   <i name="EMAX">    -10.00000000</i>
   <i name="EFERMI">      0.00000000</i>
  </separator>
  <separator name="writing" >
   <i type="int" name="NWRITE">     2</i>
   <i type="logical" name="LWAVE"> F  </i>
   <i type="logical" name="LDOWNSAMPLE"> F  </i>
   <i type="logical" name="LCHARG"> F  </i>
   <i type="logical" name="LPARD"> F  </i>
   <i type="logical" name="LVTOT"> F  </i>
   <i type="logical" name="LVHAR"> F  </i>
   <i type="logical" name="LELF"> F  </i>
   <i type="logical" name="LOPTICS"> F  </i>
   <v name="STM">      0.00000000      0.00000000      0.00000000      0.00000000      0.00000000      0.00000000      0.00000000</v>
  </separator>
  <separator name="performance" >
   <i type="int" name="NPAR">     1</i>
   <i type="int" name="NSIM">     4</i>
   <i type="int" name="NBLK">    -1</i>
   <i type="logical" name="LPLANE"> T  </i>
   <i type="logical" name="LSCALAPACK"> T  </i>
   <i type="logical" name="LSCAAWARE"> F  </i>
   <i type="logical" name="LSCALU"> F  </i>
   <i type="logical" name="LASYNC"> F  </i>
   <i type="logical" name="LORBITALREAL"> F  </i>
  </separator>
  <separator name="miscellaneous" >
   <i type="int" name="IDIOT">     3</i>
   <i type="int" name="PHON_NSTRUCT">    -1</i>
   <i type="logical" name="LMUSIC"> F  </i>
   <v name="POMASS">     26.98200000     16.00000000</v>
   <v name="DARWINR">      0.00000000      0.00000000</v>
   <v name="DARWINV">      1.00000000      1.00000000</v>
   <i type="logical" name="LCORR"> T  </i>
  </separator>
  <i type="logical" name="GGA_COMPAT"> T  </i>
  <i type="logical" name="LBERRY"> F  </i>
  <i type="int" name="ICORELEVEL">     0</i>
  <i type="logical" name="LDAU"> F  </i>
  <i type="int" name="I_CONSTRAINED_M">     0</i>
  <separator name="electronic exchange-correlation" >
   <i type="string" name="GGA">--</i>
   <i type="int" name="VOSKOWN">     0</i>
   <i type="logical" name="LHFCALC"> F  </i>
   <i type="string" name="PRECFOCK"></i>
   <i type="logical" name="LSYMGRAD"> F  </i>
   <i type="logical" name="LHFONE"> F  </i>
   <i type="logical" name="LRHFCALC"> F  </i>
   <i type="logical" name="LTHOMAS"> F  </i>
   <i type="logical" name="LMODELHF"> F  </i>
   <i type="logical" name="LFOCKACE"> F  </i>
   <i name="ENCUT4O">     -1.00000000</i>
   <i type="int" name="EXXOEP">     0</i>
   <i type="int" name="FOURORBIT">     0</i>
   <i name="AEXX">      0.00000000</i>
   <i name="HFALPHA">      0.00000000</i>
   <i name="MCALPHA">      0.00000000</i>
   <i name="ALDAX">      1.00000000</i>
   <i name="AGGAX">      1.00000000</i>
   <i name="ALDAC">      1.00000000</i>
   <i name="AGGAC">      1.00000000</i>
   <i type="int" name="NKREDX">     1</i>
   <i type="int" name="NKREDY">     1</i>
   <i type="int" name="NKREDZ">     1</i>
   <i type="logical" name="SHIFTRED"> F  </i>
   <i type="logical" name="ODDONLY"> F  </i>
   <i type="logical" name="EVENONLY"> F  </i>
   <i type="int" name="LMAXFOCK">     0</i>
   <i type="int" name="NMAXFOCKAE">     0</i>
   <i type="logical" name="LFOCKAEDFT"> F  </i>
   <i name="HFSCREEN">      0.00000000</i>
   <i name="HFSCREENC">      0.00000000</i>
   <i type="int" name="NBANDSGWLOW">     0</i>
  </separator>
  <separator name="vdW DFT" >
   <i type="logical" name="LUSE_VDW"> F  </i>
   <i name="Zab_VDW">     -0.84910000</i>
   <i name="PARAM1">      0.12340000</i>
   <i name="PARAM2">      1.00000000</i>
   <i name="PARAM3">      0.00000000</i>
  </separator>
  <separator name="model GW" >
   <i type="int" name="MODEL_GW">     0</i>
   <i name="MODEL_EPS0">     18.18686853</i>
   <i name="MODEL_ALPHA">      1.00000000</i>
  </separator>
  <separator name="linear response parameters" >
   <i type="logical" name="LEPSILON"> F  </i>
   <i type="logical" name="LRPA"> F  </i>
   <i type="logical" name="LNABLA"> F  </i>
   <i type="logical" name="LVEL"> F  </i>
   <i type="int" name="KINTER">     0</i>
   <i name="CSHIFT">      0.10000000</i>
   <i name="OMEGAMAX">     -1.00000000</i>
   <i name="DEG_THRESHOLD">      0.00200000</i>
   <i name="RTIME">     -0.10000000</i>
   <i name="WPLASMAI">      0.00000000</i>
   <v name="DFIELD">      0.00000000      0.00000000      0.00000000</v>
   <v name="WPLASMA">      0.00000000      0.00000000      0.00000000      0.00000000      0.00000000      0.00000000      0.00000000      0.00000000      0.00000000</v>
  </separator>
  <separator name="orbital magnetization" >
   <i type="logical" name="NUCIND"> F  </i>
   <v name="MAGPOS">      0.00000000      0.00000000      0.00000000</v>
   <i type="logical" name="LNICSALL"> T  </i>
   <i type="logical" name="ORBITALMAG"> F  </i>
   <i type="logical" name="LMAGBLOCH"> F  </i>
   <i type="logical" name="LCHIMAG"> F  </i>
   <i type="logical" name="LGAUGE"> T  </i>
   <i type="int" name="MAGATOM">     0</i>
   <v name="MAGDIPOL">      0.00000000      0.00000000      0.00000000</v>
   <v name="AVECCONST">      0.00000000      0.00000000      0.00000000</v>
  </separator>
  <separator name="response functions" >
   <i type="logical" name="LFINITE_TEMPERATURE"> F  </i>
   <i type="logical" name="LADDER"> F  </i>
   <i type="logical" name="LRPAFORCE"> F  </i>
   <i type="logical" name="LFXC"> F  </i>
   <i type="logical" name="LHARTREE"> T  </i>
   <i type="int" name="IBSE">     0</i>
   <v type="int" name="KPOINT">    -1     0     0     0</v>
   <i type="logical" name="LTCTC"> F  </i>
   <i type="logical" name="LTCTE"> F  </i>
   <i type="logical" name="LTETE"> F  </i>
   <i type="logical" name="LTRIPLET"> F  </i>
   <i type="logical" name="LFXCEPS"> F  </i>
   <i type="logical" name="LFXHEG"> F  </i>
   <i type="int" name="NATURALO">     2</i>
   <i type="logical" name="LHOLEGF"> F  </i>
   <i type="logical" name="L2ORDER"> F  </i>
   <i type="logical" name="LDMP1"> F  </i>
   <i type="logical" name="LMP2LT"> F  </i>
   <i type="logical" name="LSMP2LT"> F  </i>
   <i type="logical" name="LGWLF"> F  </i>
   <i name="ENCUTGW">     -2.00000000</i>
   <i name="ENCUTGWSOFT">     -2.00000000</i>
   <i name="ENCUTLF">     -1.00000000</i>
   <i type="logical" name="LESF_SPLINES"> F  </i>
   <i type="int" name="LMAXMP2">    -1</i>
   <i name="SCISSOR">      0.00000000</i>
   <i type="int" name="NOMEGA">     0</i>
   <i type="int" name="NOMEGAR">     0</i>
   <i type="int" name="NBANDSGW">    -1</i>
   <i type="int" name="NBANDSO">    -1</i>
   <i type="int" name="NBANDSV">    -1</i>
   <i type="int" name="NELM">     1</i>
   <i type="int" name="NELMHF">     1</i>
   <i type="int" name="DIM">     3</i>
   <i type="int" name="IESPILON">     4</i>
   <i type="int" name="ANTIRES">     0</i>
   <i name="OMEGAMAX">    -30.00000000</i>
   <i name="OMEGAMIN">    -30.00000000</i>
   <i name="OMEGATL">   -200.00000000</i>
   <i type="int" name="OMEGAGRID">     0</i>
   <i name="CSHIFT">     -0.10000000</i>
   <i type="logical" name="LSELFENERGY"> F  </i>
   <i type="logical" name="LSPECTRAL"> F  </i>
   <i type="logical" name="LSPECTRALGW"> F  </i>
   <i type="logical" name="LSINGLES"> F  </i>
   <i type="logical" name="LFERMIGW"> F  </i>
   <i type="logical" name="ODDONLYGW"> F  </i>
   <i type="logical" name="EVENONLYGW"> F  </i>
   <i type="int" name="NKREDLFX">     1</i>
   <i type="int" name="NKREDLFY">     1</i>
   <i type="int" name="NKREDLFZ">     1</i>
   <i type="int" name="MAXMEM">  2800</i>
   <i type="int" name="TELESCOPE">     0</i>
   <i type="int" name="NTAUPAR">    -1</i>
   <i type="int" name="NOMEGAPAR">    -1</i>
   <i name="DAMP_NEWTON">      0.80000001</i>
   <i name="LAMBDA">      1.00000000</i>
  </separator>
  <separator name="External order field" >
   <i name="OFIELD_KAPPA">      0.00000000</i>
   <v name="OFIELD_K">      0.00000000      0.00000000      0.00000000</v>
   <i name="OFIELD_Q6_NEAR">      0.00000000</i>
   <i name="OFIELD_Q6_FAR">      0.00000000</i>
   <i name="OFIELD_A">      0.00000000</i>
  </separator>
  <separator name="solvation model" >
   <i type="logical" name="LSOL"> F  </i>
  </separator>
 </parameters>
 <atominfo>
  <atoms>     253 </atoms>
  <types>       2 </types>
  <array name="atoms" >
   <dimension dim="1">ion</dimension>
   <field type="string">element</field>
   <field type="int">atomtype</field>
   <set>
    <rc><c>Al</c><c>   1</c></rc>
    <rc><c>Al</c><c>   1</c></rc>
    <rc><c>Al</c><c>   1</c></rc>
    <rc><c>Al</c><c>   1</c></rc>
    <rc><c>Al</c><c>   1</c></rc>
    <rc><c>Al</c><c>   1</c></rc>
    <rc><c>Al</c><c>   1</c></rc>
    <rc><c>Al</c><c>   1</c></rc>
    <rc><c>Al</c><c>   1</c></rc>
    <rc><c>Al</c><c>   1</c></rc>
    <rc><c>Al</c><c>   1</c></rc>
    <rc><c>Al</c><c>   1</c></rc>
    <rc><c>Al</c><c>   1</c></rc>
    <rc><c>Al</c><c>   1</c></rc>
    <rc><c>Al</c><c>   1</c></rc>
    <rc><c>Al</c><c>   1</c></rc>
    <rc><c>Al</c><c>   1</c></rc>
    <rc><c>Al</c><c>   1</c></rc>
    <rc><c>Al</c><c>   1</c></rc>
    <rc><c>Al</c><c>   1</c></rc>
    <rc><c>Al</c><c>   1</c></rc>
    <rc><c>Al</c><c>   1</c></rc>
    <rc><c>Al</c><c>   1</c></rc>
    <rc><c>Al</c><c>   1</c></rc>
    <rc><c>Al</c><c>   1</c></rc>
    <rc><c>Al</c><c>   1</c></rc>
    <rc><c>Al</c><c>   1</c></rc>
    <rc><c>Al</c><c>   1</c></rc>
    <rc><c>Al</c><c>   1</c></rc>
    <rc><c>Al</c><c>   1</c></rc>
    <rc><c>Al</c><c>   1</c></rc>
    <rc><c>Al</c><c>   1</c></rc>
    <rc><c>Al</c><c>   1</c></rc>
    <rc><c>Al</c><c>   1</c></rc>
    <rc><c>Al</c><c>   1</c></rc>
    <rc><c>Al</c><c>   1</c></rc>
    <rc><c>Al</c><c>   1</c></rc>
    <rc><c>Al</c><c>   1</c></rc>
    <rc><c>Al</c><c>   1</c></rc>
    <rc><c>Al</c><c>   1</c></rc>
    <rc><c>Al</c><c>   1</c></rc>
    <rc><c>Al</c><c>   1</c></rc>
    <rc><c>Al</c><c>   1</c></rc>
    <rc><c>Al</c><c>   1</c></rc>
    <rc><c>Al</c><c>   1</c></rc>
    <rc><c>Al</c><c>   1</c></rc>
    <rc><c>Al</c><c>   1</c></rc>
    <rc><c>Al</c><c>   1</c></rc>
    <rc><c>Al</c><c>   1</c></rc>
    <rc><c>Al</c><c>   1</c></rc>
    <rc><c>Al</c><c>   1</c></rc>
    <rc><c>Al</c><c>   1</c></rc>
    <rc><c>Al</c><c>   1</c></rc>
    <rc><c>Al</c><c>   1</c></rc>
    <rc><c>Al</c><c>   1</c></rc>
    <rc><c>Al</c><c>   1</c></rc>
    <rc><c>Al</c><c>   1</c></rc>
    <rc><c>Al</c><c>   1</c></rc>
    <rc><c>Al</c><c>   1</c></rc>
    <rc><c>Al</c><c>   1</c></rc>
    <rc><c>Al</c><c>   1</c></rc>
    <rc><c>Al</c><c>   1</c></rc>
    <rc><c>Al</c><c>   1</c></rc>
    <rc><c>Al</c><c>   1</c></rc>
    <rc><c>Al</c><c>   1</c></rc>
    <rc><c>Al</c><c>   1</c></rc>
    <rc><c>Al</c><c>   1</c></rc>
    <rc><c>Al</c><c>   1</c></rc>
    <rc><c>Al</c><c>   1</c></rc>
    <rc><c>Al</c><c>   1</c></rc>
    <rc><c>Al</c><c>   1</c></rc>
    <rc><c>Al</c><c>   1</c></rc>
    <rc><c>Al</c><c>   1</c></rc>
    <rc><c>Al</c><c>   1</c></rc>
    <rc><c>Al</c><c>   1</c></rc>
    <rc><c>Al</c><c>   1</c></rc>
    <rc><c>Al</c><c>   1</c></rc>
    <rc><c>Al</c><c>   1</c></rc>
    <rc><c>Al</c><c>   1</c></rc>
    <rc><c>Al</c><c>   1</c></rc>
    <rc><c>Al</c><c>   1</c></rc>
    <rc><c>Al</c><c>   1</c></rc>
    <rc><c>Al</c><c>   1</c></rc>
    <rc><c>Al</c><c>   1</c></rc>
    <rc><c>Al</c><c>   1</c></rc>
    <rc><c>Al</c><c>   1</c></rc>
    <rc><c>Al</c><c>   1</c></rc>
    <rc><c>Al</c><c>   1</c></rc>
    <rc><c>Al</c><c>   1</c></rc>
    <rc><c>Al</c><c>   1</c></rc>
    <rc><c>Al</c><c>   1</c></rc>
    <rc><c>Al</c><c>   1</c></rc>
    <rc><c>Al</c><c>   1</c></rc>
    <rc><c>Al</c><c>   1</c></rc>
    <rc><c>Al</c><c>   1</c></rc>
    <rc><c>Al</c><c>   1</c></rc>
    <rc><c>Al</c><c>   1</c></rc>
    <rc><c>Al</c><c>   1</c></rc>
    <rc><c>Al</c><c>   1</c></rc>
    <rc><c>Al</c><c>   1</c></rc>
    <rc><c>Al</c><c>   1</c></rc>
    <rc><c>Al</c><c>   1</c></rc>
    <rc><c>Al</c><c>   1</c></rc>
    <rc><c>Al</c><c>   1</c></rc>
    <rc><c>Al</c><c>   1</c></rc>
    <rc><c>Al</c><c>   1</c></rc>
    <rc><c>Al</c><c>   1</c></rc>
    <rc><c>Al</c><c>   1</c></rc>
    <rc><c>Al</c><c>   1</c></rc>
    <rc><c>Al</c><c>   1</c></rc>
    <rc><c>Al</c><c>   1</c></rc>
    <rc><c>Al</c><c>   1</c></rc>
    <rc><c>Al</c><c>   1</c></rc>
    <rc><c>Al</c><c>   1</c></rc>
    <rc><c>Al</c><c>   1</c></rc>
    <rc><c>Al</c><c>   1</c></rc>
    <rc><c>Al</c><c>   1</c></rc>
    <rc><c>Al</c><c>   1</c></rc>
    <rc><c>Al</c><c>   1</c></rc>
    <rc><c>Al</c><c>   1</c></rc>
    <rc><c>Al</c><c>   1</c></rc>
    <rc><c>Al</c><c>   1</c></rc>
    <rc><c>Al</c><c>   1</c></rc>
    <rc><c>Al</c><c>   1</c></rc>
    <rc><c>Al</c><c>   1</c></rc>
    <rc><c>Al</c><c>   1</c></rc>
    <rc><c>Al</c><c>   1</c></rc>
    <rc><c>Al</c><c>   1</c></rc>
    <rc><c>Al</c><c>   1</c></rc>
    <rc><c>Al</c><c>   1</c></rc>
    <rc><c>Al</c><c>   1</c></rc>
    <rc><c>Al</c><c>   1</c></rc>
    <rc><c>Al</c><c>   1</c></rc>
    <rc><c>Al</c><c>   1</c></rc>
    <rc><c>Al</c><c>   1</c></rc>
    <rc><c>Al</c><c>   1</c></rc>
    <rc><c>Al</c><c>   1</c></rc>
    <rc><c>Al</c><c>   1</c></rc>
    <rc><c>Al</c><c>   1</c></rc>
    <rc><c>Al</c><c>   1</c></rc>
    <rc><c>Al</c><c>   1</c></rc>
    <rc><c>Al</c><c>   1</c></rc>
    <rc><c>Al</c><c>   1</c></rc>
    <rc><c>Al</c><c>   1</c></rc>
    <rc><c>Al</c><c>   1</c></rc>
    <rc><c>Al</c><c>   1</c></rc>
    <rc><c>Al</c><c>   1</c></rc>
    <rc><c>Al</c><c>   1</c></rc>
    <rc><c>Al</c><c>   1</c></rc>
    <rc><c>Al</c><c>   1</c></rc>
    <rc><c>Al</c><c>   1</c></rc>
    <rc><c>Al</c><c>   1</c></rc>
    <rc><c>Al</c><c>   1</c></rc>
    <rc><c>Al</c><c>   1</c></rc>
    <rc><c>Al</c><c>   1</c></rc>
    <rc><c>Al</c><c>   1</c></rc>
    <rc><c>Al</c><c>   1</c></rc>
    <rc><c>Al</c><c>   1</c></rc>
    <rc><c>Al</c><c>   1</c></rc>
    <rc><c>Al</c><c>   1</c></rc>
    <rc><c>Al</c><c>   1</c></rc>
    <rc><c>Al</c><c>   1</c></rc>
    <rc><c>Al</c><c>   1</c></rc>
    <rc><c>Al</c><c>   1</c></rc>
    <rc><c>Al</c><c>   1</c></rc>
    <rc><c>Al</c><c>   1</c></rc>
    <rc><c>Al</c><c>   1</c></rc>
    <rc><c>Al</c><c>   1</c></rc>
    <rc><c>Al</c><c>   1</c></rc>
    <rc><c>Al</c><c>   1</c></rc>
    <rc><c>Al</c><c>   1</c></rc>
    <rc><c>Al</c><c>   1</c></rc>
    <rc><c>Al</c><c>   1</c></rc>
    <rc><c>Al</c><c>   1</c></rc>
    <rc><c>Al</c><c>   1</c></rc>
    <rc><c>Al</c><c>   1</c></rc>
    <rc><c>Al</c><c>   1</c></rc>
    <rc><c>Al</c><c>   1</c></rc>
    <rc><c>Al</c><c>   1</c></rc>
    <rc><c>Al</c><c>   1</c></rc>
    <rc><c>Al</c><c>   1</c></rc>
    <rc><c>Al</c><c>   1</c></rc>
    <rc><c>Al</c><c>   1</c></rc>
    <rc><c>Al</c><c>   1</c></rc>
    <rc><c>Al</c><c>   1</c></rc>
    <rc><c>Al</c><c>   1</c></rc>
    <rc><c>Al</c><c>   1</c></rc>
    <rc><c>Al</c><c>   1</c></rc>
    <rc><c>Al</c><c>   1</c></rc>
    <rc><c>Al</c><c>   1</c></rc>
    <rc><c>Al</c><c>   1</c></rc>
    <rc><c>Al</c><c>   1</c></rc>
    <rc><c>Al</c><c>   1</c></rc>
    <rc><c>Al</c><c>   1</c></rc>
    <rc><c>Al</c><c>   1</c></rc>
    <rc><c>Al</c><c>   1</c></rc>
    <rc><c>Al</c><c>   1</c></rc>
    <rc><c>Al</c><c>   1</c></rc>
    <rc><c>Al</c><c>   1</c></rc>
    <rc><c>Al</c><c>   1</c></rc>
    <rc><c>Al</c><c>   1</c></rc>
    <rc><c>Al</c><c>   1</c></rc>
    <rc><c>Al</c><c>   1</c></rc>
    <rc><c>Al</c><c>   1</c></rc>
    <rc><c>Al</c><c>   1</c></rc>
    <rc><c>Al</c><c>   1</c></rc>
    <rc><c>Al</c><c>   1</c></rc>
    <rc><c>Al</c><c>   1</c></rc>
    <rc><c>Al</c><c>   1</c></rc>
    <rc><c>Al</c><c>   1</c></rc>
    <rc><c>Al</c><c>   1</c></rc>
    <rc><c>Al</c><c>   1</c></rc>
    <rc><c>Al</c><c>   1</c></rc>
    <rc><c>Al</c><c>   1</c></rc>
    <rc><c>Al</c><c>   1</c></rc>
    <rc><c>Al</c><c>   1</c></rc>
    <rc><c>Al</c><c>   1</c></rc>
    <rc><c>Al</c><c>   1</c></rc>
    <rc><c>Al</c><c>   1</c></rc>
    <rc><c>Al</c><c>   1</c></rc>
    <rc><c>Al</c><c>   1</c></rc>
    <rc><c>Al</c><c>   1</c></rc>
    <rc><c>Al</c><c>   1</c></rc>
    <rc><c>Al</c><c>   1</c></rc>
    <rc><c>Al</c><c>   1</c></rc>
    <rc><c>Al</c><c>   1</c></rc>
    <rc><c>Al</c><c>   1</c></rc>
    <rc><c>Al</c><c>   1</c></rc>
    <rc><c>Al</c><c>   1</c></rc>
    <rc><c>Al</c><c>   1</c></rc>
    <rc><c>Al</c><c>   1</c></rc>
    <rc><c>Al</c><c>   1</c></rc>
    <rc><c>Al</c><c>   1</c></rc>
    <rc><c>Al</c><c>   1</c></rc>
    <rc><c>Al</c><c>   1</c></rc>
    <rc><c>Al</c><c>   1</c></rc>
    <rc><c>Al</c><c>   1</c></rc>
    <rc><c>Al</c><c>   1</c></rc>
    <rc><c>Al</c><c>   1</c></rc>
    <rc><c>Al</c><c>   1</c></rc>
    <rc><c>Al</c><c>   1</c></rc>
    <rc><c>Al</c><c>   1</c></rc>
    <rc><c>Al</c><c>   1</c></rc>
    <rc><c>Al</c><c>   1</c></rc>
    <rc><c>Al</c><c>   1</c></rc>
    <rc><c>Al</c><c>   1</c></rc>
    <rc><c>Al</c><c>   1</c></rc>
    <rc><c>Al</c><c>   1</c></rc>
    <rc><c>Al</c><c>   1</c></rc>
    <rc><c>Al</c><c>   1</c></rc>
    <rc><c>Al</c><c>   1</c></rc>
    <rc><c>Al</c><c>   1</c></rc>
    <rc><c>O </c><c>   2</c></rc>
   </set>
  </array>
  <array name="atomtypes" >
   <dimension dim="1">type</dimension>
   <field type="int">atomspertype</field>
   <field type="string">element</field>
   <field>mass</field>
   <field>valence</field>
   <field type="string">pseudopotential</field>
   <set>
    <rc><c> 252</c><c>Al</c><c>     26.98200000</c><c>      3.00000000</c><c>  PAW Al_GW 19Mar2012                   </c></rc>
    <rc><c>   1</c><c>O </c><c>     16.00000000</c><c>      6.00000000</c><c>  PAW O_GW 19Mar2012                    </c></rc>
   </set>
  </array>
 </atominfo>
 <structure name="initialpos" >
  <crystal>
   <varray name="basis" >
    <v>       0.00000000     -17.18057346       0.00000000 </v>
    <v>       0.00000000      -8.59028673     -14.87881307 </v>
    <v>      30.00000000       0.00000000       0.00000000 </v>
   </varray>
   <i name="volume">   7668.79622957 </i>
   <varray name="rec_basis" >
    <v>       0.00000000      -0.05820527       0.03360483 </v>
    <v>       0.00000000       0.00000000      -0.06720966 </v>
    <v>       0.03333333       0.00000000       0.00000000 </v>
   </varray>
  </crystal>
  <varray name="positions" >
   <v>       0.44444444       0.44444444       0.07873473 </v>
   <v>       0.44444444       0.77777778       0.07873473 </v>
   <v>       0.44444444       0.11111111       0.07873473 </v>
   <v>       0.77777778       0.44444444       0.07873473 </v>
   <v>       0.77777778       0.77777778       0.07873473 </v>
   <v>       0.77777778       0.11111111       0.07873473 </v>
   <v>       0.11111111       0.44444444       0.07873473 </v>
   <v>       0.11111111       0.77777778       0.07873473 </v>
   <v>       0.11111111       0.11111111       0.07873473 </v>
   <v>       0.55555556       0.55555556       0.15702584 </v>
   <v>       0.55555556       0.88888889       0.15702584 </v>
   <v>       0.55555556       0.22222222       0.15702584 </v>
   <v>       0.88888889       0.55555556       0.15702584 </v>
   <v>       0.88888889       0.88888889       0.15702584 </v>
   <v>       0.88888889       0.22222222       0.15702584 </v>
   <v>       0.22222222       0.55555556       0.15702584 </v>
   <v>       0.22222222       0.88888889       0.15702584 </v>
   <v>       0.22222222       0.22222222       0.15702584 </v>
   <v>       0.66666667       0.66666667       0.23375740 </v>
   <v>       0.66666667       0.00000000       0.23375740 </v>
   <v>       0.66666667       0.33333333       0.23375740 </v>
   <v>       0.00000000       0.66666667       0.23375740 </v>
   <v>       0.00000000       0.00000000       0.23375740 </v>
   <v>       0.00000000       0.33333333       0.23375740 </v>
   <v>       0.33333333       0.66666667       0.23375740 </v>
   <v>       0.33333333       0.00000000       0.23375740 </v>
   <v>       0.33333333       0.33333333       0.23375740 </v>
   <v>       0.77777778       0.77777778       0.31173066 </v>
   <v>       0.77777778       0.11111111       0.31173066 </v>
   <v>       0.77777778       0.44444444       0.31173066 </v>
   <v>       0.11111111       0.77777778       0.31173066 </v>
   <v>       0.11111111       0.11111111       0.31173066 </v>
   <v>       0.11111111       0.44444444       0.31173066 </v>
   <v>       0.44444444       0.77777778       0.31173066 </v>
   <v>       0.44444444       0.11111111       0.31173066 </v>
   <v>       0.44444444       0.44444444       0.31173066 </v>
   <v>       0.88888889       0.88888889       0.38970391 </v>
   <v>       0.88888889       0.22222222       0.38970391 </v>
   <v>       0.88888889       0.55555556       0.38970391 </v>
   <v>       0.22222222       0.88888889       0.38970391 </v>
   <v>       0.22222222       0.22222222       0.38970391 </v>
   <v>       0.22222222       0.55555556       0.38970391 </v>
   <v>       0.55555556       0.88888889       0.38970391 </v>
   <v>       0.55555556       0.22222222       0.38970391 </v>
   <v>       0.55555556       0.55555556       0.38970391 </v>
   <v>       0.00000000       0.00000000       0.46643547 </v>
   <v>       0.00000000       0.33333333       0.46643547 </v>
   <v>       0.00000000       0.66666667       0.46643547 </v>
   <v>       0.33333333       0.00000000       0.46643547 </v>
   <v>       0.33333333       0.33333333       0.46643547 </v>
   <v>       0.33333333       0.66666667       0.46643547 </v>
   <v>       0.66666667       0.00000000       0.46643547 </v>
   <v>       0.66666667       0.33333333       0.46643547 </v>
   <v>       0.66666667       0.66666667       0.46643547 </v>
   <v>       0.11111111       0.11111111       0.54472658 </v>
   <v>       0.11111111       0.44444444       0.54472658 </v>
   <v>       0.11111111       0.77777778       0.54472658 </v>
   <v>       0.44444444       0.11111111       0.54472658 </v>
   <v>       0.44444444       0.44444444       0.54472658 </v>
   <v>       0.44444444       0.77777778       0.54472658 </v>
   <v>       0.77777778       0.11111111       0.54472658 </v>
   <v>       0.77777778       0.44444444       0.54472658 </v>
   <v>       0.77777778       0.77777778       0.54472658 </v>
   <v>       0.27777778       0.27777778       0.07873473 </v>
   <v>       0.27777778       0.61111111       0.07873473 </v>
   <v>       0.27777778       0.94444444       0.07873473 </v>
   <v>       0.61111111       0.27777778       0.07873473 </v>
   <v>       0.61111111       0.61111111       0.07873473 </v>
   <v>       0.61111111       0.94444444       0.07873473 </v>
   <v>       0.94444444       0.27777778       0.07873473 </v>
   <v>       0.94444444       0.61111111       0.07873473 </v>
   <v>       0.94444444       0.94444444       0.07873473 </v>
   <v>       0.38888889       0.38888889       0.15702584 </v>
   <v>       0.38888889       0.72222222       0.15702584 </v>
   <v>       0.38888889       0.05555556       0.15702584 </v>
   <v>       0.72222222       0.38888889       0.15702584 </v>
   <v>       0.72222222       0.72222222       0.15702584 </v>
   <v>       0.72222222       0.05555556       0.15702584 </v>
   <v>       0.05555556       0.38888889       0.15702584 </v>
   <v>       0.05555556       0.72222222       0.15702584 </v>
   <v>       0.05555556       0.05555556       0.15702584 </v>
   <v>       0.50000000       0.50000000       0.23375740 </v>
   <v>       0.50000000       0.83333333       0.23375740 </v>
   <v>       0.50000000       0.16666667       0.23375740 </v>
   <v>       0.83333333       0.50000000       0.23375740 </v>
   <v>       0.83333333       0.83333333       0.23375740 </v>
   <v>       0.83333333       0.16666667       0.23375740 </v>
   <v>       0.16666667       0.50000000       0.23375740 </v>
   <v>       0.16666667       0.83333333       0.23375740 </v>
   <v>       0.16666667       0.16666667       0.23375740 </v>
   <v>       0.61111111       0.61111111       0.31173066 </v>
   <v>       0.61111111       0.94444444       0.31173066 </v>
   <v>       0.61111111       0.27777778       0.31173066 </v>
   <v>       0.94444444       0.61111111       0.31173066 </v>
   <v>       0.94444444       0.94444444       0.31173066 </v>
   <v>       0.94444444       0.27777778       0.31173066 </v>
   <v>       0.27777778       0.61111111       0.31173066 </v>
   <v>       0.27777778       0.94444444       0.31173066 </v>
   <v>       0.27777778       0.27777778       0.31173066 </v>
   <v>       0.72222222       0.72222222       0.38970391 </v>
   <v>       0.72222222       0.05555556       0.38970391 </v>
   <v>       0.72222222       0.38888889       0.38970391 </v>
   <v>       0.05555556       0.72222222       0.38970391 </v>
   <v>       0.05555556       0.05555556       0.38970391 </v>
   <v>       0.05555556       0.38888889       0.38970391 </v>
   <v>       0.38888889       0.72222222       0.38970391 </v>
   <v>       0.38888889       0.05555556       0.38970391 </v>
   <v>       0.38888889       0.38888889       0.38970391 </v>
   <v>       0.83333333       0.83333333       0.46643547 </v>
   <v>       0.83333333       0.16666667       0.46643547 </v>
   <v>       0.83333333       0.50000000       0.46643547 </v>
   <v>       0.16666667       0.83333333       0.46643547 </v>
   <v>       0.16666667       0.16666667       0.46643547 </v>
   <v>       0.16666667       0.50000000       0.46643547 </v>
   <v>       0.50000000       0.83333333       0.46643547 </v>
   <v>       0.50000000       0.16666667       0.46643547 </v>
   <v>       0.50000000       0.50000000       0.46643547 </v>
   <v>       0.94444444       0.94444444       0.54472658 </v>
   <v>       0.94444444       0.27777778       0.54472658 </v>
   <v>       0.94444444       0.61111111       0.54472658 </v>
   <v>       0.27777778       0.94444444       0.54472658 </v>
   <v>       0.27777778       0.27777778       0.54472658 </v>
   <v>       0.27777778       0.61111111       0.54472658 </v>
   <v>       0.61111111       0.94444444       0.54472658 </v>
   <v>       0.61111111       0.27777778       0.54472658 </v>
   <v>       0.61111111       0.61111111       0.54472658 </v>
   <v>       0.27777778       0.44444444       0.07873473 </v>
   <v>       0.27777778       0.77777778       0.07873473 </v>
   <v>       0.27777778       0.11111111       0.07873473 </v>
   <v>       0.61111111       0.44444444       0.07873473 </v>
   <v>       0.61111111       0.77777778       0.07873473 </v>
   <v>       0.61111111       0.11111111       0.07873473 </v>
   <v>       0.94444444       0.44444444       0.07873473 </v>
   <v>       0.94444444       0.77777778       0.07873473 </v>
   <v>       0.94444444       0.11111111       0.07873473 </v>
   <v>       0.38888889       0.55555556       0.15702584 </v>
   <v>       0.38888889       0.88888889       0.15702584 </v>
   <v>       0.38888889       0.22222222       0.15702584 </v>
   <v>       0.72222222       0.55555556       0.15702584 </v>
   <v>       0.72222222       0.88888889       0.15702584 </v>
   <v>       0.72222222       0.22222222       0.15702584 </v>
   <v>       0.05555556       0.55555556       0.15702584 </v>
   <v>       0.05555556       0.88888889       0.15702584 </v>
   <v>       0.05555556       0.22222222       0.15702584 </v>
   <v>       0.50000000       0.66666667       0.23375740 </v>
   <v>       0.50000000       0.00000000       0.23375740 </v>
   <v>       0.50000000       0.33333333       0.23375740 </v>
   <v>       0.83333333       0.66666667       0.23375740 </v>
   <v>       0.83333333       0.00000000       0.23375740 </v>
   <v>       0.83333333       0.33333333       0.23375740 </v>
   <v>       0.16666667       0.66666667       0.23375740 </v>
   <v>       0.16666667       0.00000000       0.23375740 </v>
   <v>       0.16666667       0.33333333       0.23375740 </v>
   <v>       0.61111111       0.77777778       0.31173066 </v>
   <v>       0.61111111       0.11111111       0.31173066 </v>
   <v>       0.61111111       0.44444444       0.31173066 </v>
   <v>       0.94444444       0.77777778       0.31173066 </v>
   <v>       0.94444444       0.11111111       0.31173066 </v>
   <v>       0.94444444       0.44444444       0.31173066 </v>
   <v>       0.27777778       0.77777778       0.31173066 </v>
   <v>       0.27777778       0.11111111       0.31173066 </v>
   <v>       0.27777778       0.44444444       0.31173066 </v>
   <v>       0.72222222       0.88888889       0.38970391 </v>
   <v>       0.72222222       0.22222222       0.38970391 </v>
   <v>       0.72222222       0.55555556       0.38970391 </v>
   <v>       0.05555556       0.88888889       0.38970391 </v>
   <v>       0.05555556       0.22222222       0.38970391 </v>
   <v>       0.05555556       0.55555556       0.38970391 </v>
   <v>       0.38888889       0.88888889       0.38970391 </v>
   <v>       0.38888889       0.22222222       0.38970391 </v>
   <v>       0.38888889       0.55555556       0.38970391 </v>
   <v>       0.83333333       0.00000000       0.46643547 </v>
   <v>       0.83333333       0.33333333       0.46643547 </v>
   <v>       0.83333333       0.66666667       0.46643547 </v>
   <v>       0.16666667       0.00000000       0.46643547 </v>
   <v>       0.16666667       0.33333333       0.46643547 </v>
   <v>       0.16666667       0.66666667       0.46643547 </v>
   <v>       0.50000000       0.00000000       0.46643547 </v>
   <v>       0.50000000       0.33333333       0.46643547 </v>
   <v>       0.50000000       0.66666667       0.46643547 </v>
   <v>       0.94444444       0.11111111       0.54472658 </v>
   <v>       0.94444444       0.44444444       0.54472658 </v>
   <v>       0.94444444       0.77777778       0.54472658 </v>
   <v>       0.27777778       0.11111111       0.54472658 </v>
   <v>       0.27777778       0.44444444       0.54472658 </v>
   <v>       0.27777778       0.77777778       0.54472658 </v>
   <v>       0.61111111       0.11111111       0.54472658 </v>
   <v>       0.61111111       0.44444444       0.54472658 </v>
   <v>       0.61111111       0.77777778       0.54472658 </v>
   <v>       0.44444444       0.27777778       0.07873473 </v>
   <v>       0.44444444       0.61111111       0.07873473 </v>
   <v>       0.44444444       0.94444444       0.07873473 </v>
   <v>       0.77777778       0.27777778       0.07873473 </v>
   <v>       0.77777778       0.61111111       0.07873473 </v>
   <v>       0.77777778       0.94444444       0.07873473 </v>
   <v>       0.11111111       0.27777778       0.07873473 </v>
   <v>       0.11111111       0.61111111       0.07873473 </v>
   <v>       0.11111111       0.94444444       0.07873473 </v>
   <v>       0.55555556       0.38888889       0.15702584 </v>
   <v>       0.55555556       0.72222222       0.15702584 </v>
   <v>       0.55555556       0.05555556       0.15702584 </v>
   <v>       0.88888889       0.38888889       0.15702584 </v>
   <v>       0.88888889       0.72222222       0.15702584 </v>
   <v>       0.88888889       0.05555556       0.15702584 </v>
   <v>       0.22222222       0.38888889       0.15702584 </v>
   <v>       0.22222222       0.72222222       0.15702584 </v>
   <v>       0.22222222       0.05555556       0.15702584 </v>
   <v>       0.66666667       0.50000000       0.23375740 </v>
   <v>       0.66666667       0.83333333       0.23375740 </v>
   <v>       0.66666667       0.16666667       0.23375740 </v>
   <v>       0.00000000       0.50000000       0.23375740 </v>
   <v>       0.00000000       0.83333333       0.23375740 </v>
   <v>       0.00000000       0.16666667       0.23375740 </v>
   <v>       0.33333333       0.50000000       0.23375740 </v>
   <v>       0.33333333       0.83333333       0.23375740 </v>
   <v>       0.33333333       0.16666667       0.23375740 </v>
   <v>       0.77777778       0.61111111       0.31173066 </v>
   <v>       0.77777778       0.94444444       0.31173066 </v>
   <v>       0.77777778       0.27777778       0.31173066 </v>
   <v>       0.11111111       0.61111111       0.31173066 </v>
   <v>       0.11111111       0.94444444       0.31173066 </v>
   <v>       0.11111111       0.27777778       0.31173066 </v>
   <v>       0.44444444       0.61111111       0.31173066 </v>
   <v>       0.44444444       0.94444444       0.31173066 </v>
   <v>       0.44444444       0.27777778       0.31173066 </v>
   <v>       0.88888889       0.72222222       0.38970391 </v>
   <v>       0.88888889       0.05555556       0.38970391 </v>
   <v>       0.88888889       0.38888889       0.38970391 </v>
   <v>       0.22222222       0.72222222       0.38970391 </v>
   <v>       0.22222222       0.05555556       0.38970391 </v>
   <v>       0.22222222       0.38888889       0.38970391 </v>
   <v>       0.55555556       0.72222222       0.38970391 </v>
   <v>       0.55555556       0.05555556       0.38970391 </v>
   <v>       0.55555556       0.38888889       0.38970391 </v>
   <v>       0.00000000       0.83333333       0.46643547 </v>
   <v>       0.00000000       0.16666667       0.46643547 </v>
   <v>       0.00000000       0.50000000       0.46643547 </v>
   <v>       0.33333333       0.83333333       0.46643547 </v>
   <v>       0.33333333       0.16666667       0.46643547 </v>
   <v>       0.33333333       0.50000000       0.46643547 </v>
   <v>       0.66666667       0.83333333       0.46643547 </v>
   <v>       0.66666667       0.16666667       0.46643547 </v>
   <v>       0.66666667       0.50000000       0.46643547 </v>
   <v>       0.11111111       0.94444444       0.54472658 </v>
   <v>       0.11111111       0.27777778       0.54472658 </v>
   <v>       0.11111111       0.61111111       0.54472658 </v>
   <v>       0.44444444       0.94444444       0.54472658 </v>
   <v>       0.44444444       0.27777778       0.54472658 </v>
   <v>       0.44444444       0.61111111       0.54472658 </v>
   <v>       0.77777778       0.94444444       0.54472658 </v>
   <v>       0.77777778       0.27777778       0.54472658 </v>
   <v>       0.77777778       0.61111111       0.54472658 </v>
   <v>       0.38888889       0.55555556       0.49000000 </v>
  </varray>
 </structure>
 <calculation>
  <scstep>
   <time name="dav">    4.46    4.47</time>
   <time name="total">    4.94    4.95</time>
   <energy>
    <i name="alphaZ">    499.44056572 </i>
    <i name="ewald">  90902.35394661 </i>
    <i name="hartreedc">-104834.97453387 </i>
    <i name="XCdc">  -6616.36886427 </i>
    <i name="pawpsdc">  17031.59111732 </i>
    <i name="pawaedc">  -8978.24457680 </i>
    <i name="eentropy">     -0.06504885 </i>
    <i name="bandstr">    440.99692889 </i>
    <i name="atom">  13923.58983807 </i>
    <i name="e_fr_energy">   2368.31937281 </i>
    <i name="e_wo_entrp">   2368.38442167 </i>
    <i name="e_0_energy">   2368.35189724 </i>
   </energy>
  </scstep>
  <scstep>
   <time name="dav">    5.73    5.73</time>
   <time name="total">    5.73    5.73</time>
   <energy>
    <i name="e_fr_energy">   -705.85015045 </i>
    <i name="e_wo_entrp">   -705.73508178 </i>
    <i name="e_0_energy">   -705.79261612 </i>
   </energy>
  </scstep>
  <scstep>
   <time name="dav">    6.07    6.07</time>
   <time name="total">    6.07    6.08</time>
   <energy>
    <i name="e_fr_energy">   -942.70770634 </i>
    <i name="e_wo_entrp">   -942.49975406 </i>
    <i name="e_0_energy">   -942.60373020 </i>
   </energy>
  </scstep>
  <scstep>
   <time name="dav">    6.20    6.20</time>
   <time name="total">    6.20    6.20</time>
   <energy>
    <i name="e_fr_energy">   -954.78198726 </i>
    <i name="e_wo_entrp">   -954.55497528 </i>
    <i name="e_0_energy">   -954.66848127 </i>
   </energy>
  </scstep>
  <scstep>
   <time name="dav">    6.16    6.16</time>
   <time name="total">    6.85    6.85</time>
   <energy>
    <i name="e_fr_energy">   -955.20092138 </i>
    <i name="e_wo_entrp">   -954.97256773 </i>
    <i name="e_0_energy">   -955.08674456 </i>
   </energy>
  </scstep>
  <scstep>
   <time name="dav">    5.68    5.68</time>
   <time name="total">    6.83    6.83</time>
   <energy>
    <i name="e_fr_energy">   -968.03054719 </i>
    <i name="e_wo_entrp">   -967.93340503 </i>
    <i name="e_0_energy">   -967.98197611 </i>
   </energy>
  </scstep>
  <scstep>
   <time name="dav">    5.48    5.48</time>
   <time name="total">    6.65    6.65</time>
   <energy>
    <i name="e_fr_energy">   -931.12032952 </i>
    <i name="e_wo_entrp">   -931.02676236 </i>
    <i name="e_0_energy">   -931.07354594 </i>
   </energy>
  </scstep>
  <scstep>
   <time name="dav">    5.30    5.30</time>
   <time name="total">    6.43    6.43</time>
   <energy>
    <i name="e_fr_energy">   -930.32627077 </i>
    <i name="e_wo_entrp">   -930.23120574 </i>
    <i name="e_0_energy">   -930.27873825 </i>
   </energy>
  </scstep>
  <scstep>
   <time name="dav">    5.66    5.66</time>
   <time name="total">    6.80    6.80</time>
   <energy>
    <i name="e_fr_energy">   -937.56035430 </i>
    <i name="e_wo_entrp">   -937.43168643 </i>
    <i name="e_0_energy">   -937.49602036 </i>
   </energy>
  </scstep>
  <scstep>
   <time name="dav">    5.82    5.82</time>
   <time name="total">    6.97    6.97</time>
   <energy>
    <i name="e_fr_energy">   -926.00391454 </i>
    <i name="e_wo_entrp">   -925.90776969 </i>
    <i name="e_0_energy">   -925.95584211 </i>
   </energy>
  </scstep>
  <scstep>
   <time name="dav">    5.34    5.34</time>
   <time name="total">    6.49    6.49</time>
   <energy>
    <i name="e_fr_energy">   -926.06259886 </i>
    <i name="e_wo_entrp">   -925.96619577 </i>
    <i name="e_0_energy">   -926.01439732 </i>
   </energy>
  </scstep>
  <scstep>
   <time name="dav">    5.31    5.31</time>
   <time name="total">    6.48    6.48</time>
   <energy>
    <i name="e_fr_energy">   -926.01301225 </i>
    <i name="e_wo_entrp">   -925.91738177 </i>
    <i name="e_0_energy">   -925.96519701 </i>
   </energy>
  </scstep>
  <scstep>
   <time name="dav">    5.29    5.29</time>
   <time name="total">    6.45    6.45</time>
   <energy>
    <i name="e_fr_energy">   -925.96805934 </i>
    <i name="e_wo_entrp">   -925.87003066 </i>
    <i name="e_0_energy">   -925.91904500 </i>
   </energy>
  </scstep>
  <scstep>
   <time name="dav">    5.15    5.15</time>
   <time name="total">    6.33    6.33</time>
   <energy>
    <i name="e_fr_energy">   -925.93930102 </i>
    <i name="e_wo_entrp">   -925.84238297 </i>
    <i name="e_0_energy">   -925.89084200 </i>
   </energy>
  </scstep>
  <scstep>
   <time name="dav">    5.39    5.39</time>
   <time name="total">    6.57    6.57</time>
   <energy>
    <i name="e_fr_energy">   -925.93853612 </i>
    <i name="e_wo_entrp">   -925.84186276 </i>
    <i name="e_0_energy">   -925.89019944 </i>
   </energy>
  </scstep>
  <scstep>
   <time name="dav">    5.04    5.04</time>
   <time name="total">    6.22    6.22</time>
   <energy>
    <i name="e_fr_energy">   -925.94860675 </i>
    <i name="e_wo_entrp">   -925.85221330 </i>
    <i name="e_0_energy">   -925.90041002 </i>
   </energy>
  </scstep>
  <scstep>
   <time name="dav">    5.08    5.08</time>
   <time name="total">    6.29    6.29</time>
   <energy>
    <i name="e_fr_energy">   -925.95574584 </i>
    <i name="e_wo_entrp">   -925.85929402 </i>
    <i name="e_0_energy">   -925.90751993 </i>
   </energy>
  </scstep>
  <scstep>
   <time name="dav">    5.02    5.02</time>
   <time name="total">    6.24    6.24</time>
   <energy>
    <i name="e_fr_energy">   -925.95957712 </i>
    <i name="e_wo_entrp">   -925.86301819 </i>
    <i name="e_0_energy">   -925.91129766 </i>
   </energy>
  </scstep>
  <scstep>
   <time name="dav">    5.05    5.05</time>
   <time name="total">    6.28    6.28</time>
   <energy>
    <i name="e_fr_energy">   -925.96167007 </i>
    <i name="e_wo_entrp">   -925.86512013 </i>
    <i name="e_0_energy">   -925.91339510 </i>
   </energy>
  </scstep>
  <scstep>
   <time name="dav">    4.71    4.71</time>
   <time name="total">    5.95    5.95</time>
   <energy>
    <i name="e_fr_energy">   -925.96358911 </i>
    <i name="e_wo_entrp">   -925.86702720 </i>
    <i name="e_0_energy">   -925.91530816 </i>
   </energy>
  </scstep>
  <scstep>
   <time name="dav">    4.81    4.81</time>
   <time name="total">    6.06    6.07</time>
   <energy>
    <i name="e_fr_energy">   -925.96486592 </i>
    <i name="e_wo_entrp">   -925.86834304 </i>
    <i name="e_0_energy">   -925.91660448 </i>
   </energy>
  </scstep>
  <scstep>
   <time name="dav">    4.68    4.68</time>
   <time name="total">    5.96    5.96</time>
   <energy>
    <i name="e_fr_energy">   -925.96574029 </i>
    <i name="e_wo_entrp">   -925.86921406 </i>
    <i name="e_0_energy">   -925.91747717 </i>
   </energy>
  </scstep>
  <scstep>
   <time name="dav">    4.48    4.48</time>
   <time name="total">    5.75    5.76</time>
   <energy>
    <i name="e_fr_energy">   -925.96671738 </i>
    <i name="e_wo_entrp">   -925.87017216 </i>
    <i name="e_0_energy">   -925.91844477 </i>
   </energy>
  </scstep>
  <scstep>
   <time name="dav">    4.53    4.53</time>
   <time name="total">    5.82    5.82</time>
   <energy>
    <i name="e_fr_energy">   -925.96828544 </i>
    <i name="e_wo_entrp">   -925.87172356 </i>
    <i name="e_0_energy">   -925.92000450 </i>
   </energy>
  </scstep>
  <scstep>
   <time name="dav">    4.05    4.05</time>
   <time name="total">    5.37    5.37</time>
   <energy>
    <i name="e_fr_energy">   -925.96852883 </i>
    <i name="e_wo_entrp">   -925.87196439 </i>
    <i name="e_0_energy">   -925.92024661 </i>
   </energy>
  </scstep>
  <scstep>
   <time name="dav">    3.86    3.86</time>
   <time name="total">    5.19    5.19</time>
   <energy>
    <i name="e_fr_energy">   -925.96868457 </i>
    <i name="e_wo_entrp">   -925.87211777 </i>
    <i name="e_0_energy">   -925.92040117 </i>
   </energy>
  </scstep>
  <scstep>
   <time name="dav">    3.82    3.82</time>
   <time name="total">    5.16    5.16</time>
   <energy>
    <i name="e_fr_energy">   -925.96878355 </i>
    <i name="e_wo_entrp">   -925.87221829 </i>
    <i name="e_0_energy">   -925.92050092 </i>
   </energy>
  </scstep>
  <scstep>
   <time name="dav">    3.37    3.37</time>
   <time name="total">    4.71    4.72</time>
   <energy>
    <i name="e_fr_energy">   -925.96879922 </i>
    <i name="e_wo_entrp">   -925.87223297 </i>
    <i name="e_0_energy">   -925.92051610 </i>
   </energy>
  </scstep>
  <scstep>
   <time name="dav">    3.24    3.24</time>
   <time name="total">    4.62    4.62</time>
   <energy>
    <i name="e_fr_energy">   -925.96881059 </i>
    <i name="e_wo_entrp">   -925.87224303 </i>
    <i name="e_0_energy">   -925.92052681 </i>
   </energy>
  </scstep>
  <scstep>
   <time name="dav">    3.12    3.12</time>
   <time name="total">    3.57    3.57</time>
   <energy>
    <i name="alphaZ">    499.44056572 </i>
    <i name="ewald">  90902.35394661 </i>
    <i name="hartreedc">-105832.51835612 </i>
    <i name="XCdc">  -6583.58779865 </i>
    <i name="pawpsdc">  22362.32908679 </i>
    <i name="pawaedc"> -14312.97199191 </i>
    <i name="eentropy">     -0.09656813 </i>
    <i name="bandstr">  -1884.50753494 </i>
    <i name="atom">  13923.58983807 </i>
    <i name="e_fr_energy">   -925.96881256 </i>
    <i name="e_wo_entrp">   -925.87224443 </i>
    <i name="e_0_energy">   -925.92052850 </i>
   </energy>
  </scstep>
  <structure>
   <crystal>
    <varray name="basis" >
     <v>       0.00000000     -17.18057346       0.00000000 </v>
     <v>       0.00000000      -8.59028673     -14.87881307 </v>
     <v>      30.00000000       0.00000000       0.00000000 </v>
    </varray>
    <i name="volume">   7668.79622957 </i>
    <varray name="rec_basis" >
     <v>       0.00000000      -0.05820527       0.03360483 </v>
[...]
       <r>    -0.5573    74.7290   518.8576 </r>
       <r>    -0.4710   172.3020   533.7325 </r>
       <r>    -0.3847   117.0343   543.8361 </r>
       <r>    -0.2983   121.7200   554.3443 </r>
       <r>    -0.2120   102.1326   563.1614 </r>
       <r>    -0.1257    49.9255   567.4715 </r>
       <r>    -0.0393    66.7214   573.2316 </r>
       <r>     0.0470    71.2598   579.3835 </r>
       <r>     0.1333    78.4259   586.1540 </r>
       <r>     0.2196   127.6681   597.1756 </r>
       <r>     0.3060    66.6815   602.9323 </r>
       <r>     0.3923    82.3791   610.0441 </r>
       <r>     0.4786   123.9444   620.7443 </r>
       <r>     0.5650   111.4073   630.3621 </r>
       <r>     0.6513    76.8539   636.9969 </r>
       <r>     0.7376    28.3160   639.4415 </r>
       <r>     0.8240    66.7696   645.2057 </r>
       <r>     0.9103   138.7784   657.1865 </r>
       <r>     0.9966   180.3875   672.7594 </r>
       <r>     1.0830   193.3778   689.4538 </r>
       <r>     1.1693    90.1973   697.2406 </r>
       <r>     1.2556    35.0500   700.2664 </r>
       <r>     1.3419    53.1572   704.8555 </r>
       <r>     1.4283   127.8102   715.8894 </r>
       <r>     1.5146   163.2033   729.9788 </r>
       <r>     1.6009   116.9037   740.0712 </r>
       <r>     1.6873    88.8776   747.7440 </r>
       <r>     1.7736   101.4649   756.5035 </r>
       <r>     1.8599    94.7553   764.6838 </r>
       <r>     1.9463   136.3101   776.4515 </r>
       <r>     2.0326   105.5348   785.5623 </r>
       <r>     2.1189   111.1659   795.1593 </r>
       <r>     2.2052    60.1050   800.3482 </r>
       <r>     2.2916    38.3012   803.6548 </r>
       <r>     2.3779    71.4213   809.8206 </r>
       <r>     2.4642   148.0541   822.6022 </r>
       <r>     2.5506   131.8793   833.9874 </r>
       <r>     2.6369   111.7240   843.6325 </r>
       <r>     2.7232    68.7152   849.5648 </r>
       <r>     2.8096    69.7266   855.5843 </r>
       <r>     2.8959   210.0343   873.7166 </r>
       <r>     2.9822   246.2762   894.9777 </r>
       <r>     3.0686   133.7017   906.5203 </r>
       <r>     3.1549    69.7820   912.5446 </r>
       <r>     3.2412    90.9529   920.3966 </r>
       <r>     3.3275   107.2289   929.6537 </r>
       <r>     3.4139   164.9967   943.8979 </r>
       <r>     3.5002   113.1609   953.6671 </r>
       <r>     3.5865   101.1534   962.3997 </r>
       <r>     3.6729    80.2013   969.3236 </r>
       <r>     3.7592    62.6852   974.7352 </r>
       <r>     3.8455    87.1780   982.2613 </r>
       <r>     3.9319   100.6050   990.9466 </r>
       <r>     4.0182   219.8572  1009.9269 </r>
       <r>     4.1045    69.0611  1015.8890 </r>
       <r>     4.1908     1.2855  1016.0000 </r>
       <r>     4.2772     0.0004  1016.0000 </r>
       <r>     4.3635     0.0000  1016.0000 </r>
       <r>     4.4498     0.0000  1016.0000 </r>
       <r>     4.5362     0.0000  1016.0000 </r>
       <r>     4.6225     0.0000  1016.0000 </r>
       <r>     4.7088     0.0000  1016.0000 </r>
       <r>     4.7952     0.0000  1016.0000 </r>
       <r>     4.8815     0.0000  1016.0000 </r>
       <r>     4.9678     0.0000  1016.0000 </r>
       <r>     5.0541     0.0000  1016.0000 </r>
       <r>     5.1405     0.0000  1016.0000 </r>
       <r>     5.2268     0.0000  1016.0000 </r>
      </set>
     </set>
    </array>
   </total>
  </dos>
 </calculation>
 <structure name="finalpos" >
  <crystal>
   <varray name="basis" >
    <v>       0.00000000     -17.18057346       0.00000000 </v>
    <v>       0.00000000      -8.59028673     -14.87881307 </v>
    <v>      30.00000000       0.00000000       0.00000000 </v>
   </varray>
   <i name="volume">   7668.79622957 </i>
   <varray name="rec_basis" >
    <v>       0.00000000      -0.05820527       0.03360483 </v>
    <v>       0.00000000       0.00000000      -0.06720966 </v>
    <v>       0.03333333       0.00000000       0.00000000 </v>
   </varray>
  </crystal>
  <varray name="positions" >
   <v>       0.44443695       0.44445943       0.08269844 </v>
   <v>       0.44444117       0.77783433       0.08231003 </v>
   <v>       0.44441908       0.11101486       0.08239330 </v>
   <v>       0.77794111       0.44451429       0.08264991 </v>
   <v>       0.77753829       0.77825676       0.08256852 </v>
   <v>       0.77789939       0.11101486       0.08239330 </v>
   <v>       0.11087793       0.44451429       0.08264991 </v>
   <v>       0.11105783       0.77783433       0.08231003 </v>
   <v>       0.11101130       0.11131073       0.08256975 </v>
   <v>       0.55573290       0.55552747       0.15975321 </v>
   <v>       0.55602102       0.88865625       0.15984038 </v>
   <v>       0.55594502       0.22144330       0.15961757 </v>
   <v>       0.88888791       0.55555751       0.15981634 </v>
   <v>       0.88865607       0.88865625       0.15984038 </v>
   <v>       0.88906955       0.22226052       0.16000727 </v>
   <v>       0.22207296       0.55552747       0.15975321 </v>
   <v>       0.22204178       0.88924977       0.15986078 </v>
   <v>       0.22200327       0.22226052       0.16000727 </v>
   <v>       0.66677411       0.66690761       0.23536046 </v>
   <v>       0.66662358       0.00008618       0.23539123 </v>
   <v>       0.66646567       0.33337021       0.23520247 </v>
   <v>      -0.00034839       0.66690761       0.23536046 </v>
   <v>      -0.00008537      -0.00019419       0.23538061 </v>
   <v>      -0.00002205       0.33337743       0.23569077 </v>
   <v>       0.33325227       0.66682879       0.23507587 </v>
   <v>       0.33361290      -0.00019419       0.23538061 </v>
   <v>       0.33349745       0.33337021       0.23520247 </v>
   <v>       0.77776804       0.77779726       0.31172799 </v>
   <v>       0.77783454       0.11101645       0.31178841 </v>
   <v>       0.77788760       0.44461790       0.31163762 </v>
   <v>       0.11104123       0.77788732       0.31181154 </v>
   <v>       0.11106894       0.11119545       0.31163853 </v>
   <v>       0.11082783       0.44461790       0.31163762 </v>
   <v>       0.44440479       0.77788732       0.31181154 </v>
   <v>       0.44448234       0.11101645       0.31178841 </v>
   <v>       0.44541998       0.44249337       0.31052930 </v>
   <v>       0.88904626       0.88866530       0.38828268 </v>
   <v>       0.88931561       0.22207128       0.38809931 </v>
   <v>       0.88891067       0.55551198       0.38818690 </v>
   <v>       0.22141150       0.89051033       0.38830390 </v>
   <v>       0.22194644       0.22207128       0.38809931 </v>
   <v>       0.22162902       0.55453271       0.38827787 </v>
   <v>       0.55562178       0.88866530       0.38828268 </v>
   <v>       0.55535954       0.22261425       0.38846294 </v>
   <v>       0.55717160       0.55453271       0.38827787 </v>
   <v>      -0.00029316       0.00081195       0.46393167 </v>
   <v>       0.00017126       0.33299082       0.46341431 </v>
   <v>       0.00008520       0.66644723       0.46385305 </v>
   <v>       0.33281454       0.00081195       0.46393167 </v>
   <v>       0.33256047       0.33158548       0.46448617 </v>
   <v>       0.32900886       0.67531561       0.46625462 </v>
   <v>       0.66668567      -0.00003800       0.46369146 </v>
   <v>       0.66918738       0.33158548       0.46448617 </v>
   <v>       0.66680091       0.66644723       0.46385305 </v>
   <v>       0.11065998       0.11201337       0.54090041 </v>
   <v>       0.11030634       0.44361914       0.54187231 </v>
   <v>       0.11003574       0.77901157       0.54202233 </v>
   <v>       0.44465640       0.11094303       0.54115016 </v>
   <v>       0.44502476       0.44328381       0.54357929 </v>
   <v>       0.44428603       0.77901157       0.54202233 </v>
   <v>       0.77773391       0.11094303       0.54115016 </v>
   <v>       0.77940785       0.44361914       0.54187231 </v>
   <v>       0.77771903       0.77789528       0.54103497 </v>
   <v>       0.27784762       0.27754460       0.08264991 </v>
   <v>       0.27779277       0.61110362       0.08269844 </v>
   <v>       0.27784762       0.94460778       0.08264991 </v>
   <v>       0.61116767       0.27772450       0.08231003 </v>
   <v>       0.61116767       0.61110784       0.08231003 </v>
   <v>       0.61159009       0.94420495       0.08256852 </v>
   <v>       0.94464407       0.27767797       0.08256975 </v>
   <v>       0.94434819       0.61108575       0.08239330 </v>
   <v>       0.94434819       0.94456606       0.08239330 </v>
   <v>       0.38886081       0.38873963       0.15975321 </v>
   <v>       0.38886081       0.72239956       0.15975321 </v>
   <v>       0.38889085       0.05555458       0.15981634 </v>
   <v>       0.72258311       0.38870845       0.15986078 </v>
   <v>       0.72198958       0.72268768       0.15984038 </v>
   <v>       0.72198958       0.05532273       0.15984038 </v>
   <v>       0.05559385       0.38866994       0.16000727 </v>
   <v>       0.05477663       0.72261169       0.15961757 </v>
   <v>       0.05559385       0.05573621       0.16000727 </v>
   <v>       0.50016213       0.49991894       0.23507587 </v>
   <v>       0.50024094       0.83344078       0.23536046 </v>
   <v>       0.50024094       0.16631828       0.23536046 </v>
   <v>       0.83313914       0.50027957       0.23538061 </v>
   <v>       0.83341951       0.83329025       0.23539123 </v>
   <v>       0.83313914       0.16658130       0.23538061 </v>
   <v>       0.16670354       0.50016412       0.23520247 </v>
   <v>       0.16670354       0.83313234       0.23520247 </v>
   <v>       0.16671076       0.16664462       0.23569077 </v>
   <v>       0.61122065       0.61107145       0.31181154 </v>
   <v>       0.61113059       0.94443470       0.31172799 </v>
   <v>       0.61122065       0.27770789       0.31181154 </v>
   <v>       0.94434979       0.61114900       0.31178841 </v>
   <v>       0.94434979       0.94450121       0.31178841 </v>
   <v>       0.94452878       0.27773561       0.31163853 </v>
   <v>       0.27582670       0.61208665       0.31052930 </v>
   <v>       0.27795124       0.94455427       0.31163762 </v>
   <v>       0.27795124       0.27749450       0.31163762 </v>
   <v>       0.72199863       0.72228844       0.38828268 </v>
   <v>       0.72199863       0.05571292       0.38828268 </v>
   <v>       0.72384366       0.38807817       0.38830390 </v>
   <v>       0.05594758       0.72202621       0.38846294 </v>
   <v>       0.05540462       0.05598228       0.38809931 </v>
   <v>       0.05540462       0.38861310       0.38809931 </v>
   <v>       0.38786605       0.72383826       0.38827787 </v>
   <v>       0.38884532       0.05557734       0.38818690 </v>
   <v>       0.38786605       0.38829569       0.38827787 </v>
   <v>       0.83329533       0.83335233       0.46369146 </v>
   <v>       0.83414528       0.16637351       0.46393167 </v>
   <v>       0.83414528       0.49948121       0.46393167 </v>
   <v>       0.16491882       0.83585405       0.46448617 </v>
   <v>       0.16632415       0.16683793       0.46341431 </v>
   <v>       0.16491882       0.49922713       0.46448617 </v>
   <v>       0.49978056       0.83346757       0.46385305 </v>
   <v>       0.49978056       0.16675187       0.46385305 </v>
   <v>       0.50864895       0.49567553       0.46625462 </v>
   <v>       0.94427636       0.94440057       0.54115016 </v>
   <v>       0.94534671       0.27732665       0.54090041 </v>
   <v>       0.94427636       0.61132307       0.54115016 </v>
   <v>       0.27695248       0.94607451       0.54187231 </v>
   <v>       0.27695248       0.27697301       0.54187231 </v>
   <v>       0.27661714       0.61169143       0.54357929 </v>
   <v>       0.61122862       0.94438569       0.54103497 </v>
   <v>       0.61234490       0.27670241       0.54202233 </v>
   <v>       0.61234490       0.61095269       0.54202233 </v>
   <v>       0.27786631       0.44453298       0.08258656 </v>
   <v>       0.27786631       0.77760072       0.08258656 </v>
   <v>       0.27742382       0.11128809       0.08249100 </v>
   <v>       0.61093405       0.44453298       0.08258656 </v>
   <v>       0.61137336       0.77804002       0.08236429 </v>
   <v>       0.61137336       0.11058662       0.08236429 </v>
   <v>       0.94462142       0.44409049       0.08249100 </v>
   <v>       0.94391995       0.77804002       0.08236429 </v>
   <v>       0.94462142       0.11128809       0.08249100 </v>
   <v>       0.38888889       0.55555556       0.16054295 </v>
   <v>       0.38919572       0.88861818       0.15981497 </v>
   <v>       0.38919572       0.22218610       0.15981497 </v>
   <v>       0.72195152       0.55586239       0.15981497 </v>
   <v>       0.72222222       0.88888889       0.16012197 </v>
   <v>       0.72195152       0.22218610       0.15981497 </v>
   <v>       0.05551943       0.55586239       0.15981497 </v>
   <v>       0.05551943       0.88861818       0.15981497 </v>
   <v>       0.05555556       0.22222222       0.16018760 </v>
   <v>       0.50044093       0.66710760       0.23496335 </v>
   <v>       0.50029939      -0.00014970       0.23537834 </v>
   <v>       0.50044093       0.33245146       0.23496335 </v>
   <v>       0.83318364       0.66696606       0.23537834 </v>
   <v>       0.83318364      -0.00014970       0.23537834 </v>
   <v>       0.83336707       0.33331647       0.23530438 </v>
   <v>       0.16578480       0.66710760       0.23496335 </v>
   <v>       0.16664980       0.00003373       0.23530438 </v>
   <v>       0.16664980       0.33331647       0.23530438 </v>
   <v>       0.61109980       0.77776646       0.31203203 </v>
   <v>       0.61109980       0.11113374       0.31203203 </v>
   <v>       0.61189482       0.44405259       0.31156984 </v>
   <v>       0.94446707       0.77776646       0.31203203 </v>
   <v>       0.94436096       0.11102763       0.31157580 </v>
   <v>       0.94436096       0.44461142       0.31157580 </v>
   <v>       0.27738592       0.77856148       0.31156984 </v>
   <v>       0.27794475       0.11102763       0.31157580 </v>
   <v>       0.27738592       0.44405259       0.31156984 </v>
   <v>       0.72222222       0.88888889       0.38828991 </v>
   <v>       0.72255200       0.22217956       0.38832581 </v>
   <v>       0.72255200       0.55526844       0.38832581 </v>
   <v>       0.05551289       0.88921866       0.38832581 </v>
   <v>       0.05555556       0.22222222       0.38783613 </v>
   <v>       0.05551289       0.55526844       0.38832581 </v>
   <v>       0.38860178       0.88921866       0.38832581 </v>
   <v>       0.38860178       0.22217956       0.38832581 </v>
   <v>       0.38888889       0.55555556       0.38177327 </v>
   <v>       0.83321187      -0.00012146       0.46363440 </v>
   <v>       0.83474410       0.33262795       0.46398770 </v>
   <v>       0.83321187       0.66690959       0.46363440 </v>
   <v>       0.16596128       0.00141077       0.46398770 </v>
   <v>       0.16596128       0.33262795       0.46398770 </v>
   <v>       0.16603284       0.66698358       0.46491658 </v>
   <v>       0.50024292      -0.00012146       0.46363440 </v>
   <v>       0.50031691       0.33269950       0.46491658 </v>
   <v>       0.50031691       0.66698358       0.46491658 </v>
   <v>       0.94445835       0.11112501       0.54097753 </v>
   <v>       0.94445835       0.44441664       0.54097753 </v>
   <v>       0.94420754       0.77789623       0.54134612 </v>
   <v>       0.27774997       0.11112501       0.54097753 </v>
   <v>       0.27697861       0.44364527       0.54377618 </v>
   <v>       0.27697861       0.77937612       0.54377618 </v>
   <v>       0.61122956       0.11087421       0.54134612 </v>
   <v>       0.61270945       0.44364527       0.54377618 </v>
   <v>       0.61122956       0.77789623       0.54134612 </v>
   <v>       0.44444117       0.27772450       0.08231003 </v>
   <v>       0.44443695       0.61110362       0.08269844 </v>
   <v>       0.44441908       0.94456606       0.08239330 </v>
   <v>       0.77794111       0.27754460       0.08264991 </v>
   <v>       0.77789939       0.61108575       0.08239330 </v>
   <v>       0.77753829       0.94420495       0.08256852 </v>
   <v>       0.11101130       0.27767797       0.08256975 </v>
   <v>       0.11105783       0.61110784       0.08231003 </v>
   <v>       0.11087793       0.94460778       0.08264991 </v>
   <v>       0.55573290       0.38873963       0.15975321 </v>
   <v>       0.55594502       0.72261169       0.15961757 </v>
   <v>       0.55602102       0.05532273       0.15984038 </v>
   <v>       0.88906955       0.38866994       0.16000727 </v>
   <v>       0.88865607       0.72268768       0.15984038 </v>
   <v>       0.88888791       0.05555458       0.15981634 </v>
   <v>       0.22204178       0.38870845       0.15986078 </v>
   <v>       0.22207296       0.72239956       0.15975321 </v>
   <v>       0.22200327       0.05573621       0.16000727 </v>
   <v>       0.66646567       0.50016412       0.23520247 </v>
   <v>       0.66662358       0.83329025       0.23539123 </v>
   <v>       0.66677411       0.16631828       0.23536046 </v>
   <v>      -0.00008537       0.50027957       0.23538061 </v>
   <v>      -0.00034839       0.83344078       0.23536046 </v>
   <v>      -0.00002205       0.16664462       0.23569077 </v>
   <v>       0.33325227       0.49991894       0.23507587 </v>
   <v>       0.33349745       0.83313234       0.23520247 </v>
   <v>       0.33361290       0.16658130       0.23538061 </v>
   <v>       0.77783454       0.61114900       0.31178841 </v>
   <v>       0.77776804       0.94443470       0.31172799 </v>
   <v>       0.77788760       0.27749450       0.31163762 </v>
   <v>       0.11104123       0.61107145       0.31181154 </v>
   <v>       0.11082783       0.94455427       0.31163762 </v>
   <v>       0.11106894       0.27773561       0.31163853 </v>
   <v>       0.44541998       0.61208665       0.31052930 </v>
   <v>       0.44448234       0.94450121       0.31178841 </v>
   <v>       0.44440479       0.27770789       0.31181154 </v>
   <v>       0.88904626       0.72228844       0.38828268 </v>
   <v>       0.88891067       0.05557734       0.38818690 </v>
   <v>       0.88931561       0.38861310       0.38809931 </v>
   <v>       0.22162902       0.72383826       0.38827787 </v>
   <v>       0.22194644       0.05598228       0.38809931 </v>
   <v>       0.22141150       0.38807817       0.38830390 </v>
   <v>       0.55535954       0.72202621       0.38846294 </v>
   <v>       0.55562178       0.05571292       0.38828268 </v>
   <v>       0.55717160       0.38829569       0.38827787 </v>
   <v>       0.00008520       0.83346757       0.46385305 </v>
   <v>       0.00017126       0.16683793       0.46341431 </v>
   <v>      -0.00029316       0.49948121       0.46393167 </v>
   <v>       0.33256047       0.83585405       0.46448617 </v>
   <v>       0.33281454       0.16637351       0.46393167 </v>
   <v>       0.32900886       0.49567553       0.46625462 </v>
   <v>       0.66668567       0.83335233       0.46369146 </v>
   <v>       0.66680091       0.16675187       0.46385305 </v>
   <v>       0.66918738       0.49922713       0.46448617 </v>
   <v>       0.11030634       0.94607451       0.54187231 </v>
   <v>       0.11065998       0.27732665       0.54090041 </v>
   <v>       0.11003574       0.61095269       0.54202233 </v>
   <v>       0.44465640       0.94440057       0.54115016 </v>
   <v>       0.44428603       0.27670241       0.54202233 </v>
   <v>       0.44502476       0.61169143       0.54357929 </v>
   <v>       0.77771903       0.94438569       0.54103497 </v>
   <v>       0.77940785       0.27697301       0.54187231 </v>
   <v>       0.77773391       0.61132307       0.54115016 </v>
   <v>       0.38888889       0.55555556       0.44411012 </v>
  </varray>
 </structure>
</modeling>
