/store/Terry_project/NiAlO_EDIP_fitting_DFT/SlabNiO2-1/SlabNiO2_1_iter_last_no_ox_lmp.data (written by ASE) 

252 	 atoms 
1  atom types
0.0      15.146221758999999  xlo xhi
0.0      13.117012814000001  ylo yhi
0.0                      29  zlo zhi
     7.5731108789999997                       0                       0  xy xz yz


Atoms 

     1   1      11.323119999999999      8.0038300000000024                14.91117
     2   1      12.706619999999999      5.7857099999999999      15.082390000000002
     3   1      13.947419999999999      3.6076100000000002                15.04635
     4   1                15.16076      1.4621599999999999      15.013349999999999
     5   1      16.427510000000002      3.6305900000000007      15.011689999999998
     6   1      17.673860000000001      5.8186499999999999                15.00741
     7   1      16.402989999999999      8.0130800000000022      14.981529999999999
     8   1                15.14522                10.19998      14.991819999999999
     9   1      13.880520000000001      12.391870000000003      14.985230000000001
    10   1      16.409120000000001      12.389150000000001      14.989929999999999
    11   1                18.92531                12.39303      14.987729999999999
    12   1      20.181619999999999                10.22603      14.988690000000002
    13   1      18.926839999999999                 8.01328      14.987109999999999
    14   1      17.670210000000001      8.7596600000000002      13.000859999999999
    15   1      16.415310000000002                10.93567      13.002840000000001
    16   1      17.670020000000001                11.65734      11.013859999999999
    17   1      18.925809999999998       9.483430000000002      11.010070000000001
    18   1      20.186879999999999      10.207369999999999      9.0308799999999998
    19   1      18.931979999999999      12.382880000000002      9.0287799999999976
    20   1      21.451180000000001      12.390829999999999      9.0238300000000002
    21   1                20.18169      11.660159999999999                11.00869
    22   1      18.921130000000002      10.937840000000001      12.999359999999999
    23   1      17.667560000000002                10.20393                 14.9861
    24   1      15.198840000000001      5.7934599999999996      15.042450000000001
    25   1                14.05669      6.5565699999999998      13.036849999999998
    26   1                15.20562      4.3368100000000007                13.01885
    27   1      16.406400000000001      5.1043300000000009                11.01853
    28   1      15.192489999999999      7.3092200000000007      10.993729999999999
    29   1      16.414840000000002      8.0229099999999995      9.0198800000000006
    30   1      15.157959999999999      10.206569999999999      9.0276300000000003
    31   1      16.408110000000001      10.930410000000002      7.0513199999999996
    32   1                17.66948       8.746830000000001      7.0514599999999996
    33   1                 18.9314      9.4754500000000004      5.0757500000000002
    34   1                17.67163      11.658149999999999                 5.07538
    35   1      18.932510000000001      12.387640000000001                 3.09476
    36   1                  20.195                  10.202      3.0961500000000002
    37   1                21.45795      12.388529999999999                 3.09531
    38   1      20.193059999999999                11.65836      5.0757199999999996
    39   1      18.928329999999999                10.93285      7.0515499999999998
    40   1                17.67211      10.205670000000001      9.0284800000000001
    41   1      16.425419999999999      9.4867100000000004      11.007709999999999
    42   1                 15.1829                  8.7744      12.998089999999999
    43   1      13.925019999999998      9.4970700000000008      11.002370000000001
    44   1      13.912709999999999      10.948309999999999                13.00278
    45   1      11.424709999999999      11.051100000000002                13.01628
    46   1                10.08586      10.298400000000003                15.07755
    47   1                 8.84206      12.450260000000002      15.020630000000001
    48   1      11.355869999999999      12.428920000000002      15.031500000000001
    49   1                12.60528      10.212210000000001      15.001749999999998
    50   1      12.705579999999999      8.7800700000000003      12.974069999999998
    51   1      13.887170000000001                 7.99716                 15.0083
    52   1      16.411660000000001      12.382340000000001      9.0260599999999993
    53   1                13.89232      12.388590000000001      9.0177600000000009
    54   1                12.66316                11.68933      10.993130000000001
    55   1                11.41061      9.5233000000000025                10.98152
    56   1      8.7960100000000008      9.5059400000000025      10.994009999999999
    57   1                 7.55002      11.680120000000002                11.00164
    58   1      21.435691758999997                10.93896                12.99507
    59   1      7.5947800000000001      8.7275600000000004                 13.0274
    60   1      8.9167799999999993      8.4344600000000014      15.809430000000001
    61   1      6.2085999999999997      8.0437200000000004                15.02094
    62   1      7.5179200000000002      5.6988599999999998      14.993649999999999
    63   1      8.8281299999999998      3.6240900000000003      14.991319999999998
    64   1      10.101100000000001      1.4525399999999999                14.99363
    65   1                11.35905      2.1283300000000001                13.00206
    66   1      20.186509999999998      13.102490000000001      12.997809999999999
    67   1                13.87994     0.71292000000000011                11.00141
    68   1                12.62936      2.8520400000000001                10.98875
    69   1      13.883520000000001      3.6489500000000006      9.0378799999999995
    70   1      12.628080000000001      5.8285400000000003      9.0162600000000008
    71   1      13.888809999999999      6.5581699999999996      7.0484999999999998
    72   1                12.62176      8.7455500000000015      7.0432300000000003
    73   1      13.884899999999998      9.4722600000000021      5.0747400000000003
    74   1                12.62032      11.659290000000002      5.0758899999999993
    75   1                11.36073      10.934799999999999      7.0482500000000003
    76   1                10.09549      10.208410000000001      9.0183999999999997
    77   1      8.8372200000000003                12.38714      9.0357699999999994
    78   1                11.35731      12.388120000000001      9.0362299999999998
    79   1                10.10059      11.650119999999999                11.03706
    80   1      8.7885899999999992      11.027860000000002      13.028359999999999
    81   1      7.5413399999999999      10.336209999999999      15.030239999999999
    82   1                 18.9254      8.0217500000000026      9.0228599999999997
    83   1                17.67069      5.8292600000000006      9.0352300000000003
    84   1      16.407679999999999      3.6436299999999999      9.0355899999999991
    85   1                15.14649      1.4578800000000001                 9.03505
    86   1                13.88528                 2.18669      7.0541499999999999
    87   1      11.358840000000001      2.1801599999999999      7.0437699999999994
    88   1                10.09986      4.3733599999999999                 7.03043
    89   1                11.36195      5.1012899999999997      5.0732900000000001
    90   1                10.09703      7.2884200000000012      5.0742099999999999
    91   1                 11.3589      8.0156500000000008      3.0966300000000002
    92   1                 12.6218       5.830000000000001      3.0968499999999999
    93   1      13.885870000000001      3.6437500000000003      3.0948899999999999
    94   1                12.62161      2.9135800000000005      5.0754900000000003
    95   1      11.360329999999999     0.72906000000000004                 5.07524
    96   1                13.88353     0.72906000000000004      5.0760699999999996
    97   1            12.620589121 -0.00089281399999769967      7.0500699999999998
    98   1      12.620839999999999      1.4459000000000002      9.0180900000000008
    99   1      10.102880000000001      1.4291000000000003                 9.02041
   100   1      8.8365100000000023     0.70051000000000008      11.007020000000001
   101   1      15.154920000000001      13.104380000000003                12.99982
   102   1                 6.28444      2.1509200000000002                13.01267
   103   1      5.0208700000000004      4.3446900000000008                13.01713
   104   1      18.902450000000002      6.5632400000000004                13.00672
   105   1      5.0199299999999996      7.3062400000000007                10.99314
   106   1                 6.32735      5.0832100000000002      11.009740000000001
   107   1      7.5751800000000005      5.8202199999999999      9.0131200000000007
   108   1      6.2990199999999996      8.0325900000000008      9.0152000000000001
   109   1      7.5755699999999999      8.7460699999999996      7.0457200000000002
   110   1      21.451251759000002      10.932990000000002      7.0487200000000003
   111   1      7.5732600000000003                11.65854      5.0767499999999997
   112   1      8.8343299999999996      9.4724599999999999                 5.07524
   113   1                10.09845                10.20171      3.0964200000000002
   114   1      8.8359100000000002      12.389250000000002      3.0950600000000001
   115   1                11.35943      12.389200000000002                 3.09429
   116   1                13.88378                12.38782      3.0950700000000002
   117   1                15.14527      10.201950000000002      3.0960800000000002
   118   1      16.408180000000002                 8.01525      3.0961099999999999
   119   1                15.14662      7.2881499999999999      5.0756500000000004
   120   1                16.40888      6.5582600000000006      7.0532199999999996
   121   1      16.406500000000001      5.0997300000000001      5.0758700000000001
   122   1                15.14551      4.3733200000000005      7.0555599999999998
   123   1      13.886240000000001      5.0996200000000007                 5.07531
   124   1      12.625299999999999      4.3704299999999998      7.0478300000000003
   125   1                11.35144      3.6162700000000001      8.9948200000000007
   126   1      10.094279999999999      2.8542299999999998      10.995279999999999
   127   1      8.8366699999999998      3.6096100000000004      8.9982900000000008
   128   1      8.8161500000000004      5.0640000000000001      11.033329999999999
   129   1      10.114000000000001      4.2908299999999997      12.973249999999998
   130   1      8.8567199999999993                 6.42333      12.978490000000001
   131   1                10.12758      7.2838500000000002                11.07887
   132   1                11.35618      8.0150200000000016      9.0318000000000005
   133   1      8.8480000000000008      8.0093999999999994      9.0398300000000003
   134   1      8.8328900000000008      6.5608000000000013                 7.03918
   135   1      6.3023300000000004      6.5608700000000013      7.0418900000000004
   136   1      3.7850982409999991      6.5585700000000005      7.0533599999999996
   137   1      5.0477999999999996      4.3722700000000003      7.0552000000000001
   138   1      6.3103400000000001      5.1006600000000004      5.0719099999999999
   139   1      7.5716099999999997      2.9158300000000001      5.0706300000000004
   140   1      8.8355599999999992      0.7236800000000001      5.0710499999999996
   141   1                15.14602      13.110840000000001      7.0454499999999998
   142   1      6.3096899999999998      2.1872500000000001      7.0529000000000002
   143   1      6.3137900000000009      3.6455000000000006      9.0353999999999992
   144   1                 3.78776      3.6427100000000001      9.0367999999999995
   145   1      2.5245899999999999      2.9162000000000003                11.01867
   146   1      1.2754300000000001      2.1850499999999999      13.005330000000001
   147   1      2.5213800000000002    0.046780000000000009                13.01397
   148   1      3.7866399999999998     0.72855000000000003                11.01957
   149   1      5.0466499999999996      1.4592400000000003                 9.03491
   150   1      6.3174099999999997     0.71618999999999999      11.000349999999999
   151   1       7.572000000000001      2.8633099999999998                10.99628
   152   1      8.8291900000000005      2.1469300000000002      13.000149999999998
   153   1      7.5651200000000003      1.4655100000000001                14.98465
   154   1      5.0307300000000001      1.4584500000000002                 15.0128
   155   1                 3.77278      3.6294100000000005      15.005610000000003
   156   1      6.2832199999999991      3.6480800000000002      15.016019999999997
   157   1      4.9910500000000004      5.7926900000000012      15.019399999999997
   158   1      6.1956499999999997                  6.4996                12.93277
   159   1      7.5561800000000003      4.3271600000000001                12.98756
   160   1      11.367089999999999      6.5623000000000005      7.0386199999999999
   161   1                10.09111      5.8360400000000006      9.0252099999999995
   162   1      11.360609999999999      0.6993100000000001      11.010159999999999
   163   1      17.669460878999999      13.100472814000002      13.003069999999999
   164   1      16.489619999999999      6.5581699999999996      13.004770000000001
   165   1      17.675909999999998      7.3000299999999996                11.00348
   166   1      12.620520000000001      10.202060000000001      3.0968599999999999
   167   1                11.35955      9.4756199999999993      5.0753599999999999
   168   1                10.09892      8.7476299999999991      7.0462199999999999
   169   1      8.8336600000000001      10.934469999999999      7.0489300000000004
   170   1      7.5551599999999999      10.204079999999999      9.0159400000000005
   171   1      6.3050499999999996      9.4757200000000026                11.03421
   172   1      20.172971758999999      8.7641300000000015                12.99485
   173   1                13.88369      8.0150299999999994                 3.09605
   174   1                12.62425      7.2881200000000002      5.0743999999999998
   175   1                10.09895      11.658480000000003      5.0751499999999998
   176   1      15.146940000000001      5.8283899999999997      3.0952500000000001
   177   1                17.67041      5.8289300000000006                 3.09396
   178   1      18.933679999999999      8.0151000000000003      3.0953400000000002
   179   1      17.670030000000001                 7.28749      5.0760800000000001
   180   1      16.407769999999999      9.4716600000000017      5.0751600000000003
   181   1      15.149249999999999      8.7491800000000008      7.0468000000000002
   182   1      13.900249999999998      8.0308900000000012      9.0064200000000003
   183   1                12.69281      7.2957599999999996                 10.9902
   184   1                11.71105      6.2301700000000011                12.96599
   185   1                11.36154                  5.0042                10.95659
   186   1                13.86641      5.1091699999999998      11.052210000000001
   187   1                12.73244      4.1878700000000002                13.02989
   188   1                11.38489      3.6303399999999999                14.99872
   189   1      12.626049999999999                 1.46638                 14.9849
   190   1                13.94177      2.0915600000000003                13.00311
   191   1                 15.1433      2.9166800000000004                11.01872
   192   1      16.408259999999999      3.6432099999999998      3.0937799999999998
   193   1      15.147069999999999      1.4578600000000002                 3.09361
   194   1                 15.1464      2.9169200000000002      5.0766299999999998
   195   1                13.89029                10.93253       7.046619999999999
   196   1      12.644030000000001      10.212050000000001      9.0027399999999993
   197   1      17.671340000000001      10.202809999999999      3.0958700000000001
   198   1      16.408580000000001      12.387940000000002      3.0950500000000001
   199   1                15.14592                11.65794      5.0755299999999997
   200   1                12.62298      1.4581800000000003      3.0964700000000001
   201   1      10.097860000000001      1.4584699999999999      3.0964700000000001
   202   1      8.8342500000000008      3.6453000000000002      3.0952099999999998
   203   1      7.5740400000000001      5.8297400000000001      3.0958199999999998
   204   1      6.3119899999999998      8.0144599999999997      3.0962999999999998
   205   1      5.0482500000000003      7.2880200000000004      5.0755299999999997
   206   1                 6.31229      9.4727700000000024      5.0734700000000004
   207   1      20.188091758999999      8.7514900000000022      7.0444599999999999
   208   1      11.360939999999999      3.6443300000000005      3.0954799999999998
   209   1                10.10041      2.9139800000000005      5.0686400000000003
   210   1      8.8354600000000012      2.1591100000000001      7.0238199999999997
   211   1      7.5701000000000001                 1.43289      9.0123999999999995
   212   1      8.8331199999999992      5.1007899999999999      5.0712299999999999
   213   1                 7.56501                 4.37148      7.0354499999999991
   214   1                10.09802      5.8307500000000001      3.0969000000000002
   215   1      8.8360500000000002      8.0162400000000016      3.0957599999999998
   216   1      7.5729100000000003      7.2892900000000012                 5.07376
   217   1      7.5746799999999999      10.201970000000001                  3.0966
   218   1      17.672140879000001            13.110932814      7.0491200000000003
   219   1                 15.1439      5.8274100000000004      9.0379500000000004
   220   1      5.0522999999999998      5.8303700000000003       9.035619999999998
   221   1      3.7916599999999998      5.1034200000000007                11.01876
   222   1      2.5282100000000001      4.3628499999999999                13.00638
   223   1                 3.77515      2.1917700000000004                13.00502
   224   1      2.5249899999999998      1.4755300000000002                15.00597
   225   1      15.163690000000003      11.663760000000002                11.00892
   226   1      7.5569199999999999                 7.26938                11.00991
   227   1      5.0518599999999996      2.9150000000000005      11.022119999999999
   228   1                10.07879      9.1706800000000008                12.97369
   229   1      5.0673899999999996    0.041380000000000007                13.00526
   230   1      10.188929999999999      5.7023900000000012                14.99405
   231   1      5.0480900000000002      5.8290499999999996      3.0956599999999996
   232   1      3.7862200000000001                 3.64392      3.0952299999999999
   233   1      2.5257299999999998      2.9141500000000002      5.0752499999999987
   234   1                 1.26302      2.1863299999999999      7.0545499999999999
   235   1      2.5251091209999998  -0.0006228139999993193      7.0549900000000001
   236   1      3.7861500000000001     0.73007999999999995      5.0756399999999999
   237   1      5.0476299999999998                 1.45787      3.0948799999999999
   238   1      6.3093500000000002     0.72918000000000016      5.0756300000000003
   239   1      5.0482500000000003   0.0004799999999999999      7.0533200000000003
   240   1      3.7873600000000001      2.1859500000000005      7.0536199999999996
   241   1      2.5259200000000002      1.4583700000000002      9.0355399999999992
   242   1      1.2622500000000001                 0.72685      11.016859999999999
   243   1                15.13575    0.019300000000000001                13.00234
   244   1      6.3096599999999992      3.6434000000000002      3.0944199999999999
   245   1      5.0472400000000004      2.9145300000000005      5.0765399999999996
   246   1                  3.7862      5.1004200000000006      5.0771800000000002
   247   1      2.5242399999999998      4.3714600000000008      7.0544900000000004
   248   1      7.5718800000000002      1.4580600000000001      3.0943999999999998
   249   1      2.5238999999999998      1.4574400000000001      3.0951399999999998
   250   1      1.2626900000000001     0.72899999999999998      5.0761700000000003
   251   1  0.00012000000000000007  0.00097000000000000038      7.0533999999999999
   252   1      21.438580000000002      12.420389999999999      14.983569999999999
