 254 254   0   0
  0.3019211E+02  0.1718057E-08  0.1718057E-08  0.3000000E-08  0.5000000E-15
   1.0000000000000000E-004
  CAR 
 NiAl                                    
      5.50117088    -25.00601632  301      1.77137469      1.00000000
    -25.006  0.0000E+00  0.0000E+00
    -24.904  0.0000E+00  0.0000E+00
    -24.803  0.0000E+00  0.0000E+00
    -24.701  0.0000E+00  0.0000E+00
    -24.599  0.0000E+00  0.0000E+00
    -24.498  0.0000E+00  0.0000E+00
    -24.396  0.0000E+00  0.0000E+00
    -24.294  0.0000E+00  0.0000E+00
    -24.192  0.0000E+00  0.0000E+00
    -24.091  0.0000E+00  0.0000E+00
    -23.989  0.0000E+00  0.0000E+00
    -23.887  0.3079E-12  0.3131E-13
    -23.786  0.2359E-04  0.2399E-05
    -23.684  0.6462E+00  0.6571E-01
    -23.582  0.1607E+02  0.1700E+01
    -23.481  0.2952E+01  0.2000E+01
    -23.379  0.9001E-03  0.2000E+01
    -23.277  0.1117E-09  0.2000E+01
    -23.176  0.0000E+00  0.2000E+01
    -23.074  0.0000E+00  0.2000E+01
    -22.972  0.0000E+00  0.2000E+01
    -22.871  0.0000E+00  0.2000E+01
    -22.769  0.0000E+00  0.2000E+01
    -22.667  0.0000E+00  0.2000E+01
    -22.565  0.0000E+00  0.2000E+01
    -22.464  0.0000E+00  0.2000E+01
    -22.362  0.0000E+00  0.2000E+01
    -22.260  0.0000E+00  0.2000E+01
    -22.159  0.0000E+00  0.2000E+01
    -22.057  0.0000E+00  0.2000E+01
    -21.955  0.0000E+00  0.2000E+01
    -21.854  0.0000E+00  0.2000E+01
    -21.752  0.0000E+00  0.2000E+01
    -21.650  0.0000E+00  0.2000E+01
    -21.549  0.0000E+00  0.2000E+01
    -21.447  0.0000E+00  0.2000E+01
    -21.345  0.0000E+00  0.2000E+01
    -21.243  0.0000E+00  0.2000E+01
    -21.142  0.0000E+00  0.2000E+01
    -21.040  0.0000E+00  0.2000E+01
    -20.938  0.0000E+00  0.2000E+01
    -20.837  0.0000E+00  0.2000E+01
    -20.735  0.0000E+00  0.2000E+01
    -20.633  0.0000E+00  0.2000E+01
    -20.532  0.0000E+00  0.2000E+01
    -20.430  0.0000E+00  0.2000E+01
    -20.328  0.0000E+00  0.2000E+01
    -20.227  0.0000E+00  0.2000E+01
    -20.125  0.0000E+00  0.2000E+01
    -20.023  0.0000E+00  0.2000E+01
    -19.921  0.0000E+00  0.2000E+01
    -19.820  0.0000E+00  0.2000E+01
    -19.718  0.0000E+00  0.2000E+01
    -19.616  0.0000E+00  0.2000E+01
    -19.515  0.0000E+00  0.2000E+01
    -19.413  0.0000E+00  0.2000E+01
    -19.311  0.0000E+00  0.2000E+01
    -19.210  0.0000E+00  0.2000E+01
    -19.108  0.0000E+00  0.2000E+01
    -19.006  0.0000E+00  0.2000E+01
    -18.905  0.0000E+00  0.2000E+01
    -18.803  0.0000E+00  0.2000E+01
    -18.701  0.0000E+00  0.2000E+01
    -18.600  0.0000E+00  0.2000E+01
    -18.498  0.0000E+00  0.2000E+01
    -18.396  0.0000E+00  0.2000E+01
    -18.294  0.0000E+00  0.2000E+01
    -18.193  0.0000E+00  0.2000E+01
    -18.091  0.0000E+00  0.2000E+01
    -17.989  0.0000E+00  0.2000E+01
    -17.888  0.0000E+00  0.2000E+01
    -17.786  0.0000E+00  0.2000E+01
    -17.684  0.0000E+00  0.2000E+01
    -17.583  0.0000E+00  0.2000E+01
    -17.481  0.0000E+00  0.2000E+01
    -17.379  0.0000E+00  0.2000E+01
    -17.278  0.0000E+00  0.2000E+01
    -17.176  0.0000E+00  0.2000E+01
    -17.074  0.0000E+00  0.2000E+01
    -16.972  0.0000E+00  0.2000E+01
    -16.871  0.0000E+00  0.2000E+01
    -16.769  0.0000E+00  0.2000E+01
    -16.667  0.0000E+00  0.2000E+01
    -16.566  0.0000E+00  0.2000E+01
    -16.464  0.0000E+00  0.2000E+01
    -16.362  0.0000E+00  0.2000E+01
    -16.261  0.0000E+00  0.2000E+01
    -16.159  0.0000E+00  0.2000E+01
    -16.057  0.0000E+00  0.2000E+01
    -15.956  0.0000E+00  0.2000E+01
    -15.854  0.0000E+00  0.2000E+01
    -15.752  0.0000E+00  0.2000E+01
    -15.650  0.0000E+00  0.2000E+01
    -15.549  0.0000E+00  0.2000E+01
    -15.447  0.0000E+00  0.2000E+01
    -15.345  0.0000E+00  0.2000E+01
    -15.244  0.0000E+00  0.2000E+01
    -15.142  0.0000E+00  0.2000E+01
    -15.040  0.0000E+00  0.2000E+01
    -14.939  0.0000E+00  0.2000E+01
    -14.837  0.0000E+00  0.2000E+01
    -14.735  0.0000E+00  0.2000E+01
    -14.634  0.0000E+00  0.2000E+01
    -14.532  0.0000E+00  0.2000E+01
    -14.430  0.0000E+00  0.2000E+01
    -14.329  0.0000E+00  0.2000E+01
    -14.227  0.0000E+00  0.2000E+01
    -14.125  0.0000E+00  0.2000E+01
    -14.023  0.0000E+00  0.2000E+01
    -13.922  0.0000E+00  0.2000E+01
    -13.820  0.0000E+00  0.2000E+01
    -13.718  0.0000E+00  0.2000E+01
    -13.617  0.0000E+00  0.2000E+01
    -13.515  0.0000E+00  0.2000E+01
    -13.413  0.0000E+00  0.2000E+01
    -13.312  0.0000E+00  0.2000E+01
    -13.210  0.0000E+00  0.2000E+01
    -13.108  0.0000E+00  0.2000E+01
    -13.007  0.0000E+00  0.2000E+01
    -12.905  0.0000E+00  0.2000E+01
    -12.803  0.0000E+00  0.2000E+01
    -12.701  0.0000E+00  0.2000E+01
    -12.600  0.0000E+00  0.2000E+01
    -12.498  0.1525E-07  0.2000E+01
    -12.396  0.1537E-01  0.2002E+01
    -12.295  0.7600E+01  0.2774E+01
    -12.193  0.1196E+02  0.3990E+01
    -12.091  0.9447E-01  0.4000E+01
    -11.990  0.4529E-06  0.4000E+01
    -11.888  0.0000E+00  0.4000E+01
    -11.786  0.0000E+00  0.4000E+01
    -11.685  0.0000E+00  0.4000E+01
    -11.583  0.0000E+00  0.4000E+01
    -11.481  0.0000E+00  0.4000E+01
    -11.379  0.0000E+00  0.4000E+01
    -11.278  0.0000E+00  0.4000E+01
    -11.176  0.0000E+00  0.4000E+01
    -11.074  0.0000E+00  0.4000E+01
    -10.973  0.0000E+00  0.4000E+01
    -10.871  0.0000E+00  0.4000E+01
    -10.769  0.0000E+00  0.4000E+01
    -10.668  0.0000E+00  0.4000E+01
    -10.566  0.0000E+00  0.4000E+01
    -10.464  0.0000E+00  0.4000E+01
    -10.363  0.0000E+00  0.4000E+01
    -10.261  0.0000E+00  0.4000E+01
    -10.159  0.0000E+00  0.4000E+01
    -10.057  0.0000E+00  0.4000E+01
     -9.956  0.0000E+00  0.4000E+01
     -9.854  0.0000E+00  0.4000E+01
     -9.752  0.0000E+00  0.4000E+01
     -9.651  0.0000E+00  0.4000E+01
     -9.549  0.0000E+00  0.4000E+01
     -9.447  0.5459E-15  0.4000E+01
     -9.346  0.2065E-06  0.4000E+01
     -9.244  0.3211E-01  0.4003E+01
     -9.142  0.3180E+01  0.4327E+01
     -9.041  0.3872E+01  0.4720E+01
     -8.939  0.2506E+02  0.7269E+01
     -8.837  0.3040E+01  0.7578E+01
     -8.736  0.4426E+01  0.8028E+01
     -8.634  0.3658E+02  0.1175E+02
     -8.532  0.2549E+02  0.1434E+02
     -8.430  0.2478E+02  0.1686E+02
     -8.329  0.8147E+01  0.1769E+02
     -8.227  0.2246E+02  0.1997E+02
     -8.125  0.2226E+02  0.2224E+02
     -8.024  0.2652E+02  0.2493E+02
     -7.922  0.7152E+02  0.3221E+02
     -7.820  0.2896E+01  0.3250E+02
     -7.719  0.3007E+01  0.3281E+02
     -7.617  0.9126E+02  0.4209E+02
     -7.515  0.2917E+02  0.4505E+02
     -7.414  0.2344E+02  0.4744E+02
     -7.312  0.1774E+02  0.4924E+02
     -7.210  0.2237E+02  0.5151E+02
     -7.108  0.5005E+02  0.5660E+02
     -7.007  0.4772E+02  0.6146E+02
     -6.905  0.7405E+02  0.6899E+02
     -6.803  0.4126E+02  0.7318E+02
     -6.702  0.3009E+02  0.7624E+02
     -6.600  0.9925E+02  0.8634E+02
     -6.498  0.2466E+02  0.8884E+02
     -6.397  0.1136E+02  0.9000E+02
     -6.295  0.2175E+01  0.9022E+02
     -6.193  0.3180E+02  0.9345E+02
     -6.092  0.1128E+03  0.1049E+03
     -5.990  0.9068E+02  0.1141E+03
     -5.888  0.3644E+02  0.1179E+03
     -5.786  0.4340E+02  0.1223E+03
     -5.685  0.6955E+02  0.1293E+03
     -5.583  0.8814E+02  0.1383E+03
     -5.481  0.2644E+02  0.1410E+03
     -5.380  0.2514E+02  0.1435E+03
     -5.278  0.8004E+02  0.1517E+03
     -5.176  0.5176E+02  0.1570E+03
     -5.075  0.8020E+02  0.1651E+03
     -4.973  0.8048E+02  0.1733E+03
     -4.871  0.1361E+02  0.1747E+03
     -4.770  0.5667E+02  0.1804E+03
     -4.668  0.1254E+03  0.1932E+03
     -4.566  0.6189E+02  0.1995E+03
     -4.465  0.6860E+02  0.2065E+03
     -4.363  0.4158E+02  0.2107E+03
     -4.261  0.6679E+02  0.2175E+03
     -4.159  0.1356E+03  0.2313E+03
     -4.058  0.8827E+02  0.2402E+03
     -3.956  0.3933E+02  0.2442E+03
     -3.854  0.6816E+02  0.2512E+03
     -3.753  0.7083E+02  0.2584E+03
     -3.651  0.8862E+02  0.2674E+03
     -3.549  0.5578E+02  0.2731E+03
     -3.448  0.4104E+02  0.2772E+03
     -3.346  0.6145E+01  0.2779E+03
     -3.244  0.7188E+02  0.2852E+03
     -3.143  0.8448E+02  0.2938E+03
     -3.041  0.1154E+03  0.3055E+03
     -2.939  0.7732E+02  0.3134E+03
     -2.837  0.1528E+03  0.3289E+03
     -2.736  0.1808E+03  0.3473E+03
     -2.634  0.2188E+02  0.3495E+03
     -2.532  0.2510E+01  0.3498E+03
     -2.431  0.4498E+02  0.3543E+03
     -2.329  0.1052E+03  0.3650E+03
     -2.227  0.1074E+03  0.3759E+03
     -2.126  0.8928E+02  0.3850E+03
     -2.024  0.4609E+02  0.3897E+03
     -1.922  0.7849E+02  0.3977E+03
     -1.821  0.1247E+03  0.4104E+03
     -1.719  0.1127E+03  0.4218E+03
     -1.617  0.3931E+02  0.4258E+03
     -1.515  0.7964E+02  0.4339E+03
     -1.414  0.5975E+02  0.4400E+03
     -1.312  0.1917E+03  0.4595E+03
     -1.210  0.9862E+02  0.4695E+03
     -1.109  0.8179E+02  0.4778E+03
     -1.007  0.7431E+02  0.4854E+03
     -0.905  0.9692E+02  0.4953E+03
     -0.804  0.1206E+03  0.5075E+03
     -0.702  0.6956E+02  0.5146E+03
     -0.600  0.3048E+02  0.5177E+03
     -0.499  0.1074E+03  0.5286E+03
     -0.397  0.2085E+03  0.5498E+03
     -0.295  0.8011E+02  0.5580E+03
     -0.194  0.1244E+03  0.5706E+03
     -0.092  0.4054E+02  0.5747E+03
      0.010  0.4737E+02  0.5796E+03
      0.112  0.1097E+03  0.5907E+03
      0.213  0.9392E+02  0.6003E+03
      0.315  0.7612E+02  0.6080E+03
      0.417  0.8590E+02  0.6167E+03
      0.518  0.1404E+03  0.6310E+03
      0.620  0.6697E+02  0.6378E+03
      0.722  0.4009E+02  0.6419E+03
      0.823  0.5730E+02  0.6477E+03
      0.925  0.1446E+03  0.6624E+03
      1.027  0.2325E+03  0.6861E+03
      1.128  0.1077E+03  0.6970E+03
      1.230  0.7628E+02  0.7048E+03
      1.332  0.6536E+02  0.7114E+03
      1.434  0.9056E+02  0.7206E+03
      1.535  0.1356E+03  0.7344E+03
      1.637  0.1841E+03  0.7532E+03
      1.739  0.1209E+03  0.7655E+03
      1.840  0.5637E+02  0.7712E+03
      1.942  0.1219E+03  0.7836E+03
      2.044  0.1426E+03  0.7981E+03
      2.145  0.7324E+02  0.8055E+03
      2.247  0.7656E+02  0.8133E+03
      2.349  0.5692E+02  0.8191E+03
      2.450  0.1194E+03  0.8312E+03
      2.552  0.9589E+02  0.8410E+03
      2.654  0.1335E+03  0.8546E+03
      2.756  0.6369E+02  0.8611E+03
      2.857  0.1115E+03  0.8724E+03
      2.959  0.3121E+03  0.9041E+03
      3.061  0.1382E+03  0.9182E+03
      3.162  0.4238E+02  0.9225E+03
      3.264  0.1036E+03  0.9330E+03
      3.366  0.1320E+03  0.9465E+03
      3.467  0.1465E+03  0.9614E+03
      3.569  0.7255E+02  0.9687E+03
      3.671  0.1056E+03  0.9795E+03
      3.772  0.8272E+02  0.9879E+03
      3.874  0.8712E+02  0.9967E+03
      3.976  0.1732E+03  0.1014E+04
      4.078  0.8429E+02  0.1023E+04
      4.179  0.1030E+02  0.1024E+04
      4.281  0.2685E+00  0.1024E+04
      4.383  0.8431E-05  0.1024E+04
      4.484  0.9990E-13  0.1024E+04
      4.586  0.0000E+00  0.1024E+04
      4.688  0.0000E+00  0.1024E+04
      4.789  0.0000E+00  0.1024E+04
      4.891  0.0000E+00  0.1024E+04
      4.993  0.0000E+00  0.1024E+04
      5.094  0.0000E+00  0.1024E+04
      5.196  0.0000E+00  0.1024E+04
      5.298  0.0000E+00  0.1024E+04
      5.399  0.0000E+00  0.1024E+04
      5.501  0.0000E+00  0.1024E+04
