       N       E                     dE             d eps       ncg     rms          rms(c)
DAV:   1     0.223202963651E+05    0.22320E+05   -0.98513E+05 12200   0.134E+03
DAV:   2     0.953285832608E+02   -0.22225E+05   -0.21240E+05 12152   0.469E+02
DAV:   3    -0.133444909377E+04   -0.14298E+04   -0.11982E+04 13488   0.131E+02
DAV:   4    -0.155975992870E+04   -0.22531E+03   -0.18813E+03 21024   0.489E+01
DAV:   5    -0.157118670822E+04   -0.11427E+02   -0.10856E+02 18960   0.117E+01    0.142E+02
DAV:   6    -0.193995526784E+04   -0.36877E+03   -0.28116E+03 15776   0.166E+02    0.289E+02
DAV:   7    -0.174885295260E+04    0.19110E+03   -0.10417E+03 13272   0.142E+02    0.237E+02
DAV:   8    -0.212001081992E+04   -0.37116E+03   -0.61990E+02 16616   0.129E+02    0.315E+02
DAV:   9    -0.181695866775E+04    0.30305E+03   -0.26394E+02 14464   0.962E+01    0.261E+02
DAV:  10    -0.167395305444E+04    0.14301E+03   -0.28513E+02 16704   0.741E+01    0.217E+02
DAV:  11    -0.152040026439E+04    0.15355E+03   -0.24993E+02 14224   0.688E+01    0.171E+02
DAV:  12    -0.156370329488E+04   -0.43303E+02   -0.44643E+02 16536   0.102E+02    0.194E+02
DAV:  13    -0.151465495532E+04    0.49048E+02   -0.23761E+02 15072   0.615E+01    0.166E+02
DAV:  14    -0.160002863694E+04   -0.85374E+02   -0.15954E+02 13376   0.814E+01    0.213E+02
DAV:  15    -0.147202300385E+04    0.12801E+03   -0.79084E+01 12776   0.470E+01    0.163E+02
DAV:  16    -0.144894948430E+04    0.23074E+02   -0.70375E+01 13000   0.540E+01    0.149E+02
DAV:  17    -0.146703486497E+04   -0.18085E+02   -0.73497E+01 13120   0.453E+01    0.166E+02
DAV:  18    -0.140958801047E+04    0.57447E+02   -0.51424E+01 12984   0.395E+01    0.143E+02
DAV:  19    -0.139362216247E+04    0.15966E+02   -0.37904E+01 13048   0.343E+01    0.135E+02
DAV:  20    -0.138268707010E+04    0.10935E+02   -0.27297E+01 13008   0.313E+01    0.123E+02
DAV:  21    -0.136214475656E+04    0.20542E+02   -0.18586E+01 12832   0.255E+01    0.942E+01
DAV:  22    -0.134492590359E+04    0.17219E+02   -0.10638E+01 13096   0.181E+01    0.701E+01
DAV:  23    -0.133760728121E+04    0.73186E+01   -0.66426E+00 13696   0.119E+01    0.566E+01
DAV:  24    -0.133621361054E+04    0.13937E+01   -0.53496E+00 13416   0.117E+01    0.559E+01
DAV:  25    -0.133669368333E+04   -0.48007E+00   -0.46930E+00 13352   0.110E+01    0.604E+01
DAV:  26    -0.133158092176E+04    0.51128E+01   -0.35816E+00 13264   0.987E+00    0.453E+01
DAV:  27    -0.132961169738E+04    0.19692E+01   -0.24340E+00 13248   0.825E+00    0.386E+01
DAV:  28    -0.132855502887E+04    0.10567E+01   -0.17227E+00 13264   0.716E+00    0.351E+01
DAV:  29    -0.132808779949E+04    0.46723E+00   -0.12740E+00 13352   0.558E+00    0.333E+01
DAV:  30    -0.132759646659E+04    0.49133E+00   -0.14478E+00 13400   0.700E+00    0.350E+01
DAV:  31    -0.132670140923E+04    0.89506E+00   -0.98992E-01 13384   0.543E+00    0.295E+01
DAV:  32    -0.132631244961E+04    0.38896E+00   -0.68509E-01 13384   0.409E+00    0.269E+01
DAV:  33    -0.132689355971E+04   -0.58111E+00   -0.11290E+00 13496   0.525E+00    0.312E+01
DAV:  34    -0.132741764431E+04   -0.52408E+00   -0.10660E+00 13496   0.661E+00    0.369E+01
DAV:  35    -0.132732463665E+04    0.93008E-01   -0.10763E+00 13384   0.595E+00    0.370E+01
DAV:  36    -0.132643672068E+04    0.88792E+00   -0.99332E-01 13440   0.514E+00    0.316E+01
DAV:  37    -0.132626314119E+04    0.17358E+00   -0.14646E+00 13456   0.598E+00    0.279E+01
DAV:  38    -0.132578914856E+04    0.47399E+00   -0.81840E-01 13584   0.535E+00    0.226E+01
DAV:  39    -0.132585414358E+04   -0.64995E-01   -0.77611E-01 13632   0.502E+00    0.260E+01
DAV:  40    -0.132562556264E+04    0.22858E+00   -0.83984E-01 13608   0.542E+00    0.266E+01
DAV:  41    -0.132481209230E+04    0.81347E+00   -0.72443E-01 13520   0.488E+00    0.174E+01
DAV:  42    -0.132463463553E+04    0.17746E+00   -0.50288E-01 13504   0.340E+00    0.164E+01
DAV:  43    -0.132443288230E+04    0.20175E+00   -0.24691E-01 13472   0.234E+00    0.151E+01
DAV:  44    -0.132443966395E+04   -0.67816E-02   -0.29452E-01 13408   0.267E+00    0.135E+01
DAV:  45    -0.132435654908E+04    0.83115E-01   -0.26191E-01 13488   0.260E+00    0.103E+01
DAV:  46    -0.132435134217E+04    0.52069E-02   -0.16858E-01 13408   0.197E+00    0.911E+00
DAV:  47    -0.132436538303E+04   -0.14041E-01   -0.10059E-01 13432   0.171E+00    0.956E+00
DAV:  48    -0.132445246873E+04   -0.87086E-01   -0.10645E-01 13448   0.177E+00    0.126E+01
DAV:  49    -0.132443809045E+04    0.14378E-01   -0.12408E-01 13584   0.153E+00    0.142E+01
DAV:  50    -0.132438169460E+04    0.56396E-01   -0.98889E-02 13384   0.104E+00    0.118E+01
DAV:  51    -0.132453960589E+04   -0.15791E+00   -0.21241E-01 17208   0.172E+00    0.148E+01
DAV:  52    -0.132426621132E+04    0.27339E+00   -0.14341E-01 13648   0.150E+00    0.852E+00
DAV:  53    -0.132428299161E+04   -0.16780E-01   -0.61988E-02 13728   0.117E+00    0.749E+00
DAV:  54    -0.132421837312E+04    0.64618E-01   -0.40314E-02 13616   0.104E+00    0.577E+00
DAV:  55    -0.132426720481E+04   -0.48832E-01   -0.86271E-02 13800   0.122E+00    0.859E+00
DAV:  56    -0.132439041532E+04   -0.12321E+00   -0.18448E-01 19024   0.222E+00    0.983E+00
DAV:  57    -0.132424449430E+04    0.14592E+00   -0.17235E-01 15200   0.211E+00    0.695E+00
DAV:  58    -0.132419249545E+04    0.51999E-01   -0.47105E-02 14408   0.108E+00    0.486E+00
DAV:  59    -0.132423019058E+04   -0.37695E-01   -0.42650E-02 14048   0.103E+00    0.673E+00
DAV:  60    -0.132422891961E+04    0.12710E-02   -0.46143E-02 13872   0.115E+00    0.823E+00
DAV:  61    -0.132418784924E+04    0.41070E-01   -0.45366E-02 13960   0.126E+00    0.719E+00
DAV:  62    -0.132417698244E+04    0.10867E-01   -0.25732E-02 13856   0.963E-01    0.566E+00
DAV:  63    -0.132418477503E+04   -0.77926E-02   -0.18532E-02 13968   0.793E-01    0.507E+00
DAV:  64    -0.132418233499E+04    0.24400E-02   -0.29825E-02 13760   0.663E-01    0.273E+00
DAV:  65    -0.132421663036E+04   -0.34295E-01   -0.91425E-03 13488   0.539E-01    0.216E+00
DAV:  66    -0.132428683324E+04   -0.70203E-01   -0.72651E-02 17168   0.108E+00    0.662E+00
DAV:  67    -0.132419895511E+04    0.87878E-01   -0.43011E-02 15264   0.107E+00    0.267E+00
DAV:  68    -0.132420517862E+04   -0.62235E-02   -0.12230E-02 14192   0.541E-01    0.152E+00
DAV:  69    -0.132422091677E+04   -0.15738E-01   -0.62197E-03 13752   0.404E-01    0.163E+00
DAV:  70    -0.132421778231E+04    0.31345E-02   -0.31405E-03 13816   0.288E-01    0.132E+00
DAV:  71    -0.132423425472E+04   -0.16472E-01   -0.10794E-02 15608   0.618E-01    0.258E+00
DAV:  72    -0.132422049929E+04    0.13755E-01   -0.82349E-03 14152   0.572E-01    0.738E-01
DAV:  73    -0.132422004942E+04    0.44986E-03   -0.18187E-03 16656   0.191E-01    0.547E-01
DAV:  74    -0.132422195118E+04   -0.19018E-02   -0.11760E-03 14152   0.180E-01    0.723E-01
DAV:  75    -0.132422193849E+04    0.12681E-04   -0.88120E-04 13624   0.157E-01    0.495E-01
DAV:  76    -0.132422506477E+04   -0.31263E-02   -0.18688E-03 17376   0.233E-01    0.114E+00
DAV:  77    -0.132422234006E+04    0.27247E-02   -0.16023E-03 14744   0.225E-01    0.406E-01
DAV:  78    -0.132422278018E+04   -0.44012E-03   -0.34614E-04 14552   0.926E-02    0.367E-01
DAV:  79    -0.132422349998E+04   -0.71980E-03   -0.28169E-04 13536   0.865E-02    0.363E-01
DAV:  80    -0.132422406787E+04   -0.56789E-03   -0.21393E-04 13624   0.786E-02    0.310E-01
DAV:  81    -0.132422422814E+04   -0.16027E-03   -0.34146E-04 14440   0.111E-01    0.613E-01
DAV:  82    -0.132422413159E+04    0.96544E-04   -0.35029E-04 13984   0.108E-01    0.267E-01
DAV:  83    -0.132422495468E+04   -0.82308E-03   -0.16013E-04 14766   0.676E-02    0.202E-01
DAV:  84    -0.132422546290E+04   -0.50822E-03   -0.94257E-05 14488   0.535E-02    0.164E-01
DAV:  85    -0.132422581458E+04   -0.35168E-03   -0.84088E-05 14339   0.486E-02    0.211E-01
DAV:  86    -0.132422559527E+04    0.21931E-03   -0.11157E-04 13784   0.584E-02    0.250E-01
DAV:  87    -0.132422614440E+04   -0.54912E-03   -0.91730E-05 14311   0.536E-02    0.160E-01
DAV:  88    -0.132422648591E+04   -0.34151E-03   -0.44060E-05 12611   0.343E-02    0.124E-01
DAV:  89    -0.132422673215E+04   -0.24625E-03   -0.34226E-05 11608   0.287E-02    0.123E-01
DAV:  90    -0.132422690406E+04   -0.17191E-03   -0.28950E-05 10576   0.276E-02    0.114E-01
DAV:  91    -0.132422685734E+04    0.46718E-04   -0.60358E-05 12872   0.453E-02    0.222E-01
DAV:  92    -0.132422723964E+04   -0.38230E-03   -0.64569E-05 13304   0.450E-02    0.136E-01
DAV:  93    -0.132422765797E+04   -0.41834E-03   -0.35925E-05 11576   0.272E-02    0.981E-02
DAV:  94    -0.132422793669E+04   -0.27872E-03   -0.25188E-05 11265   0.215E-02    0.916E-02
DAV:  95    -0.132422816063E+04   -0.22394E-03   -0.23114E-05 11180   0.218E-02    0.823E-02
DAV:  96    -0.132422787005E+04    0.29058E-03   -0.31598E-05 10696   0.313E-02    0.139E-01
DAV:  97    -0.132422835022E+04   -0.48017E-03   -0.43589E-05 11160   0.311E-02    0.985E-02
DAV:  98    -0.132422851588E+04   -0.16566E-03   -0.20949E-05 10027   0.192E-02    0.491E-02
DAV:  99    -0.132422859973E+04   -0.83852E-04   -0.11442E-05  9018   0.140E-02    0.523E-02
DAV: 100    -0.132422867281E+04   -0.73077E-04   -0.10796E-05  8436   0.142E-02    0.560E-02
DAV: 101    -0.132422866145E+04    0.11356E-04   -0.28871E-05  8757   0.319E-02    0.163E-01
DAV: 102    -0.132422869189E+04   -0.30440E-04   -0.25944E-05  8408   0.301E-02    0.475E-02
DAV: 103    -0.132422873834E+04   -0.46448E-04   -0.60326E-06  8080   0.108E-02    0.357E-02
DAV: 104    -0.132422877575E+04   -0.37410E-04   -0.51787E-06  7731   0.954E-03    0.324E-02
DAV: 105    -0.132422879962E+04   -0.23865E-04   -0.37710E-06  7497   0.861E-03    0.255E-02
DAV: 106    -0.132422876630E+04    0.33322E-04   -0.97783E-06  8056   0.163E-02    0.745E-02
DAV: 107    -0.132422880085E+04   -0.34552E-04   -0.92049E-06  7864   0.164E-02    0.410E-02
DAV: 108    -0.132422882457E+04   -0.23719E-04   -0.57515E-06  8112   0.943E-03    0.188E-02
DAV: 109    -0.132422883498E+04   -0.10408E-04   -0.17703E-06  7409   0.528E-03    0.146E-02
DAV: 110    -0.132422885268E+04   -0.17704E-04   -0.13039E-06  6754   0.445E-03    0.149E-02
DAV: 111    -0.132422885711E+04   -0.44331E-05   -0.27659E-06  6834   0.103E-02
   1 F= -.14214479E+04 E0= -.14206758E+04  d E =-.154407E+01
