LAMMPS (24 Mar 2022)
OMP_NUM_THREADS environment is not set. Defaulting to 1 thread. (src/comm.cpp:98)
  using 1 OpenMP thread(s) per MPI task
Reading data file ...
  triclinic box = (0 0 0) to (15.146222 13.117013 36.4) with tilt (7.5731109 0 0)
  1 by 1 by 1 MPI processor grid
  reading atoms ...
  252 atoms
  read_data CPU = 0.045 seconds
WARNING: Using 'neigh_modify every 1 delay 0 check yes' setting during minimization (src/min.cpp:187)
Neighbor list info ...
  update every 1 steps, delay 0 steps, check yes
  max neighbors/atom: 2000, page size: 100000
  master list distance cutoff = 8.28721
  ghost atom cutoff = 8.28721
  binsize = 4.143605, bins = 6 4 9
  1 neighbor lists, perpetual/occasional/extra = 1 0 0
  (1) pair eam/alloy, perpetual
      attributes: half, newton on
      pair build: half/bin/newton/tri
      stencil: half/bin/3d/tri
      bin: standard
Setting up cg style minimization ...
  Unit style    : metal
  Current step  : 0
Per MPI rank memory allocation (min/avg/max) = 4.502 | 4.502 | 4.502 Mbytes
   Step          Temp          E_pair         E_mol          TotEng         Press     
         0   0             -1070.5441      0             -1070.5441     -1131.9041    
Loop time of 3.711e-06 on 1 procs for 0 steps with 252 atoms

107.8% CPU use with 1 MPI tasks x 1 OpenMP threads

Minimization stats:
  Stopping criterion = max iterations
  Energy initial, next-to-last, final = 
     -1070.54406164776                  0  -1070.54406164776
  Force two-norm initial, final = 11.558192 11.558192
  Force max component initial, final = 1.895743 1.895743
  Final line search alpha, max atom move = 0 0
  Iterations, force evaluations = 0 0

MPI task timing breakdown:
Section |  min time  |  avg time  |  max time  |%varavg| %total
---------------------------------------------------------------
Pair    | 0          | 0          | 0          |   0.0 |  0.00
Neigh   | 0          | 0          | 0          |   0.0 |  0.00
Comm    | 0          | 0          | 0          |   0.0 |  0.00
Output  | 0          | 0          | 0          |   0.0 |  0.00
Modify  | 0          | 0          | 0          |   0.0 |  0.00
Other   |            | 3.711e-06  |            |       |100.00

Nlocal:            252 ave         252 max         252 min
Histogram: 1 0 0 0 0 0 0 0 0 0
Nghost:           1627 ave        1627 max        1627 min
Histogram: 1 0 0 0 0 0 0 0 0 0
Neighs:          20544 ave       20544 max       20544 min
Histogram: 1 0 0 0 0 0 0 0 0 0

Total # of neighbors = 20544
Ave neighs/atom = 81.52381
Neighbor list builds = 0
Dangerous builds = 0
Setting up Verlet run ...
  Unit style    : metal
  Current step  : 0
  Time step     : 0.01
Per MPI rank memory allocation (min/avg/max) = 4.387 | 4.387 | 4.387 Mbytes
   Step          Temp          E_pair         E_mol          TotEng         Press     
         0   300           -1070.5441      0             -1060.8108      305.69593    
       100   259.74879     -1069.1764      0             -1060.7491     -3941.4278    
       200   268.35672     -1069.4295      0             -1060.7229     -15585.402    
       300   233.64629     -1068.2865      0             -1060.706      -24779.062    
       400   221.36192     -1067.9044      0             -1060.7224     -26518.135    
       500   260.20524     -1069.1704      0             -1060.7283     -19591.733    
       600   262.83266     -1069.2618      0             -1060.7344     -9380.2732    
       700   242.21778     -1068.6083      0             -1060.7497     -3784.0182    
       800   248.28011     -1068.7762      0             -1060.721      -9051.4629    
       900   248.5494      -1068.7873      0             -1060.7233     -19650.782    
      1000   212.72494     -1067.5929      0             -1060.6912     -26403.573    
      1100   222.26222     -1067.9014      0             -1060.6903     -25445.792    
      1200   262.45423     -1069.2393      0             -1060.7241     -17953.701    
      1300   244.1501      -1068.6293      0             -1060.708      -7700.651     
      1400   226.32101     -1068.0695      0             -1060.7267     -4005.7651    
      1500   251.80566     -1068.8838      0             -1060.7141     -9959.9845    
      1600   232.75447     -1068.2436      0             -1060.6921     -19337.546    
      1700   229.78591     -1068.1698      0             -1060.7146     -25415.061    
      1800   236.60976     -1068.3843      0             -1060.7076     -23654.353    
      1900   259.09165     -1069.1193      0             -1060.7132     -15383.963    
      2000   247.14576     -1068.7495      0             -1060.731      -6823.9549    
      2100   241.4141      -1068.5665      0             -1060.734      -4463.6674    
      2200   265.79829     -1069.3664      0             -1060.7428     -11428.206    
      2300   244.22361     -1068.6378      0             -1060.7141     -20154.325    
      2400   221.03262     -1067.8615      0             -1060.6903     -25408.085    
      2500   248.2282      -1068.7791      0             -1060.7255     -23437.536    
      2600   272.39226     -1069.5804      0             -1060.7428     -14442.877    
      2700   238.40503     -1068.4499      0             -1060.715      -5799.404     
      2800   227.56532     -1068.0854      0             -1060.7022     -5978.0412    
      2900   264.84395     -1069.3262      0             -1060.7335     -13994.524    
      3000   237.23518     -1068.4151      0             -1060.7182     -22340.077    
      3100   221.1656      -1067.8783      0             -1060.7027     -25227.455    
      3200   238.94449     -1068.4628      0             -1060.7104     -20058.654    
      3300   258.48147     -1069.1123      0             -1060.7261     -11554.519    
      3400   235.43327     -1068.3664      0             -1060.728      -5647.1724    
      3500   238.54713     -1068.4589      0             -1060.7194     -7662.2743    
      3600   256.80086     -1069.0627      0             -1060.7309     -15452.152    
      3700   241.32969     -1068.5512      0             -1060.7214     -21968.953    
      3800   231.56678     -1068.2203      0             -1060.7073     -23107.17     
      3900   242.44807     -1068.5791      0             -1060.7131     -18210.981    
      4000   246.43043     -1068.714       0             -1060.7187     -10828.392    
      4100   243.69944     -1068.6406      0             -1060.734      -6494.3626    
      4200   252.37126     -1068.9143      0             -1060.7263     -10684.83     
      4300   253.1082      -1068.9414      0             -1060.7295     -18985.881    
      4400   230.69107     -1068.2107      0             -1060.7261     -23852.625    
      4500   243.86736     -1068.6309      0             -1060.7188     -22216.744    
      4600   253.43501     -1068.9467      0             -1060.7242     -15886.582    
      4700   244.5875      -1068.6634      0             -1060.7279     -9298.2552    
      4800   239.36226     -1068.4766      0             -1060.7107     -8421.3156    
      4900   261.33876     -1069.2265      0             -1060.7476     -13293.099    
      5000   242.78225     -1068.5992      0             -1060.7223     -19426.551    
      5100   233.1516      -1068.2661      0             -1060.7016     -21559.793    
      5200   228.2682      -1068.1093      0             -1060.7033     -18298.463    
      5300   248.66666     -1068.7999      0             -1060.7321     -12504.783    
      5400   238.43852     -1068.4546      0             -1060.7187     -7897.3248    
      5500   255.97244     -1069.0433      0             -1060.7384     -10110.653    
      5600   244.75847     -1068.6592      0             -1060.7182     -16281.487    
      5700   237.77092     -1068.433       0             -1060.7187     -21038.662    
      5800   237.28427     -1068.4187      0             -1060.7201     -21139.201    
      5900   224.53818     -1067.985       0             -1060.7        -17066.859    
      6000   247.00124     -1068.7446      0             -1060.7308     -12320.051    
      6100   253.69236     -1068.9835      0             -1060.7526     -9690.8113    
      6200   237.10214     -1068.4175      0             -1060.7249     -12359.278    
      6300   233.16572     -1068.2754      0             -1060.7105     -17626.523    
      6400   241.46762     -1068.5714      0             -1060.7371     -20875.723    
      6500   230.50982     -1068.1943      0             -1060.7156     -19378.979    
      6600   242.33549     -1068.5843      0             -1060.7219     -15112.992    
      6700   257.03126     -1069.0762      0             -1060.737      -11126.433    
      6800   240.01822     -1068.5101      0             -1060.7229     -10501.912    
      6900   246.33558     -1068.7191      0             -1060.7269     -13361.033    
      7000   240.63455     -1068.5162      0             -1060.709      -17477.388    
      7100   230.31586     -1068.1962      0             -1060.7238     -19794.746    
      7200   240.91257     -1068.5329      0             -1060.7166     -18512.489    
      7300   239.91714     -1068.5136      0             -1060.7297     -14026.098    
      7400   236.47594     -1068.4053      0             -1060.733      -10251.472    
      7500   244.85666     -1068.6672      0             -1060.723      -11481.122    
      7600   239.75821     -1068.4953      0             -1060.7165     -15781.823    
      7700   245.03031     -1068.6634      0             -1060.7136     -19154.669    
      7800   249.97451     -1068.8448      0             -1060.7346     -19590.109    
      7900   254.13245     -1068.9785      0             -1060.7333     -16747.544    
      8000   272.31774     -1069.5859      0             -1060.7508     -12596.463    
      8100   237.71521     -1068.4445      0             -1060.732      -9911.1332    
      8200   240.71357     -1068.5449      0             -1060.7352     -12196.573    
      8300   222.73887     -1067.9274      0             -1060.7008     -16419.911    
      8400   235.14109     -1068.3373      0             -1060.7084     -18878.9      
      8500   257.03285     -1069.0938      0             -1060.7545     -18419.624    
      8600   257.17271     -1069.0935      0             -1060.7497     -14259.754    
      8700   251.95182     -1068.9223      0             -1060.7479     -11335.945    
      8800   222.6383      -1067.9289      0             -1060.7056     -11510.946    
      8900   241.43236     -1068.5725      0             -1060.7394     -14944.326    
      9000   241.55095     -1068.5511      0             -1060.7141     -18425.483    
      9100   238.59527     -1068.4703      0             -1060.7292     -19738.158    
      9200   249.21092     -1068.8177      0             -1060.7322     -18493.162    
      9300   249.53901     -1068.828       0             -1060.7319     -13624.099    
      9400   254.68523     -1068.9945      0             -1060.7314     -10467.536    
      9500   257.66006     -1069.1042      0             -1060.7446     -12147.951    
      9600   246.51127     -1068.723       0             -1060.7252     -16533.79     
      9700   237.313       -1068.4113      0             -1060.7118     -19270.826    
      9800   249.74261     -1068.8424      0             -1060.7397     -18556.486    
      9900   238.775       -1068.4653      0             -1060.7184     -15113.514    
     10000   238.82133     -1068.4737      0             -1060.7253     -11687.433    
Loop time of 6.70228 on 1 procs for 10000 steps with 252 atoms

Performance: 1289.113 ns/day, 0.019 hours/ns, 1492.029 timesteps/s
100.0% CPU use with 1 MPI tasks x 1 OpenMP threads

MPI task timing breakdown:
Section |  min time  |  avg time  |  max time  |%varavg| %total
---------------------------------------------------------------
Pair    | 6.428      | 6.428      | 6.428      |   0.0 | 95.91
Neigh   | 0          | 0          | 0          |   0.0 |  0.00
Comm    | 0.063325   | 0.063325   | 0.063325   |   0.0 |  0.94
Output  | 0.17114    | 0.17114    | 0.17114    |   0.0 |  2.55
Modify  | 0.021304   | 0.021304   | 0.021304   |   0.0 |  0.32
Other   |            | 0.01855    |            |       |  0.28

Nlocal:            252 ave         252 max         252 min
Histogram: 1 0 0 0 0 0 0 0 0 0
Nghost:           1627 ave        1627 max        1627 min
Histogram: 1 0 0 0 0 0 0 0 0 0
Neighs:          20544 ave       20544 max       20544 min
Histogram: 1 0 0 0 0 0 0 0 0 0

Total # of neighbors = 20544
Ave neighs/atom = 81.52381
Neighbor list builds = 0
Dangerous builds = 0
System init for write_restart ...
Total wall time: 0:00:06
