 257 257   0   0
  0.1133056E+02  0.1428000E-08  0.1428000E-08  0.1428000E-08  0.2000000E-15
   1.0000000000000000E-004
  CAR 
 NiAl                                    
     11.52152231    -18.46476328  301      4.04017179      1.00000000
    -18.465  0.0000E+00  0.0000E+00
    -18.365  0.0000E+00  0.0000E+00
    -18.265  0.0000E+00  0.0000E+00
    -18.165  0.0000E+00  0.0000E+00
    -18.065  0.0000E+00  0.0000E+00
    -17.965  0.0000E+00  0.0000E+00
    -17.865  0.0000E+00  0.0000E+00
    -17.765  0.0000E+00  0.0000E+00
    -17.665  0.0000E+00  0.0000E+00
    -17.565  0.0000E+00  0.0000E+00
    -17.465  0.0000E+00  0.0000E+00
    -17.365  0.2247E-13  0.2246E-14
    -17.265  0.9237E-06  0.9233E-07
    -17.165  0.1794E-01  0.1793E-02
    -17.065  0.4061E+00  0.4238E-01
    -16.965  0.7619E-01  0.5000E-01
    -16.865  0.2913E-04  0.5000E-01
    -16.766  0.5953E-11  0.5000E-01
    -16.666  0.0000E+00  0.5000E-01
    -16.566  0.0000E+00  0.5000E-01
    -16.466  0.0000E+00  0.5000E-01
    -16.366  0.0000E+00  0.5000E-01
    -16.266  0.0000E+00  0.5000E-01
    -16.166  0.0000E+00  0.5000E-01
    -16.066  0.0000E+00  0.5000E-01
    -15.966  0.0000E+00  0.5000E-01
    -15.866  0.0000E+00  0.5000E-01
    -15.766  0.0000E+00  0.5000E-01
    -15.666  0.0000E+00  0.5000E-01
    -15.566  0.0000E+00  0.5000E-01
    -15.466  0.0000E+00  0.5000E-01
    -15.366  0.0000E+00  0.5000E-01
    -15.266  0.0000E+00  0.5000E-01
    -15.166  0.0000E+00  0.5000E-01
    -15.066  0.0000E+00  0.5000E-01
    -14.966  0.0000E+00  0.5000E-01
    -14.866  0.0000E+00  0.5000E-01
    -14.766  0.0000E+00  0.5000E-01
    -14.667  0.0000E+00  0.5000E-01
    -14.567  0.0000E+00  0.5000E-01
    -14.467  0.0000E+00  0.5000E-01
    -14.367  0.0000E+00  0.5000E-01
    -14.267  0.0000E+00  0.5000E-01
    -14.167  0.0000E+00  0.5000E-01
    -14.067  0.0000E+00  0.5000E-01
    -13.967  0.0000E+00  0.5000E-01
    -13.867  0.0000E+00  0.5000E-01
    -13.767  0.0000E+00  0.5000E-01
    -13.667  0.0000E+00  0.5000E-01
    -13.567  0.0000E+00  0.5000E-01
    -13.467  0.0000E+00  0.5000E-01
    -13.367  0.0000E+00  0.5000E-01
    -13.267  0.0000E+00  0.5000E-01
    -13.167  0.0000E+00  0.5000E-01
    -13.067  0.0000E+00  0.5000E-01
    -12.967  0.0000E+00  0.5000E-01
    -12.867  0.0000E+00  0.5000E-01
    -12.767  0.0000E+00  0.5000E-01
    -12.667  0.0000E+00  0.5000E-01
    -12.567  0.0000E+00  0.5000E-01
    -12.468  0.0000E+00  0.5000E-01
    -12.368  0.0000E+00  0.5000E-01
    -12.268  0.0000E+00  0.5000E-01
    -12.168  0.0000E+00  0.5000E-01
    -12.068  0.0000E+00  0.5000E-01
    -11.968  0.0000E+00  0.5000E-01
    -11.868  0.0000E+00  0.5000E-01
    -11.768  0.0000E+00  0.5000E-01
    -11.668  0.0000E+00  0.5000E-01
    -11.568  0.0000E+00  0.5000E-01
    -11.468  0.0000E+00  0.5000E-01
    -11.368  0.0000E+00  0.5000E-01
    -11.268  0.0000E+00  0.5000E-01
    -11.168  0.0000E+00  0.5000E-01
    -11.068  0.0000E+00  0.5000E-01
    -10.968  0.0000E+00  0.5000E-01
    -10.868  0.0000E+00  0.5000E-01
    -10.768  0.0000E+00  0.5000E-01
    -10.668  0.0000E+00  0.5000E-01
    -10.568  0.0000E+00  0.5000E-01
    -10.468  0.0000E+00  0.5000E-01
    -10.368  0.0000E+00  0.5000E-01
    -10.269  0.0000E+00  0.5000E-01
    -10.169  0.0000E+00  0.5000E-01
    -10.069  0.0000E+00  0.5000E-01
     -9.969  0.0000E+00  0.5000E-01
     -9.869  0.0000E+00  0.5000E-01
     -9.769  0.0000E+00  0.5000E-01
     -9.669  0.0000E+00  0.5000E-01
     -9.569  0.0000E+00  0.5000E-01
     -9.469  0.0000E+00  0.5000E-01
     -9.369  0.0000E+00  0.5000E-01
     -9.269  0.0000E+00  0.5000E-01
     -9.169  0.0000E+00  0.5000E-01
     -9.069  0.0000E+00  0.5000E-01
     -8.969  0.0000E+00  0.5000E-01
     -8.869  0.0000E+00  0.5000E-01
     -8.769  0.0000E+00  0.5000E-01
     -8.669  0.0000E+00  0.5000E-01
     -8.569  0.0000E+00  0.5000E-01
     -8.469  0.0000E+00  0.5000E-01
     -8.369  0.0000E+00  0.5000E-01
     -8.269  0.0000E+00  0.5000E-01
     -8.169  0.0000E+00  0.5000E-01
     -8.070  0.0000E+00  0.5000E-01
     -7.970  0.0000E+00  0.5000E-01
     -7.870  0.0000E+00  0.5000E-01
     -7.770  0.0000E+00  0.5000E-01
     -7.670  0.0000E+00  0.5000E-01
     -7.570  0.0000E+00  0.5000E-01
     -7.470  0.0000E+00  0.5000E-01
     -7.370  0.0000E+00  0.5000E-01
     -7.270  0.0000E+00  0.5000E-01
     -7.170  0.0000E+00  0.5000E-01
     -7.070  0.0000E+00  0.5000E-01
     -6.970  0.0000E+00  0.5000E-01
     -6.870  0.0000E+00  0.5000E-01
     -6.770  0.0000E+00  0.5000E-01
     -6.670  0.0000E+00  0.5000E-01
     -6.570  0.0000E+00  0.5000E-01
     -6.470  0.0000E+00  0.5000E-01
     -6.370  0.0000E+00  0.5000E-01
     -6.270  0.0000E+00  0.5000E-01
     -6.170  0.0000E+00  0.5000E-01
     -6.070  0.0000E+00  0.5000E-01
     -5.970  0.0000E+00  0.5000E-01
     -5.871  0.0000E+00  0.5000E-01
     -5.771  0.0000E+00  0.5000E-01
     -5.671  0.0000E+00  0.5000E-01
     -5.571  0.0000E+00  0.5000E-01
     -5.471  0.0000E+00  0.5000E-01
     -5.371  0.0000E+00  0.5000E-01
     -5.271  0.0000E+00  0.5000E-01
     -5.171  0.0000E+00  0.5000E-01
     -5.071  0.0000E+00  0.5000E-01
     -4.971  0.0000E+00  0.5000E-01
     -4.871  0.0000E+00  0.5000E-01
     -4.771  0.2123E-12  0.5000E-01
     -4.671  0.1708E-05  0.5000E-01
     -4.571  0.7100E-02  0.5071E-01
     -4.471  0.5239E-01  0.5595E-01
     -4.371  0.9143E-01  0.6509E-01
     -4.271  0.2617E+00  0.9125E-01
     -4.171  0.3419E+00  0.1254E+00
     -4.071  0.3782E+00  0.1632E+00
     -3.971  0.3805E+00  0.2013E+00
     -3.871  0.6607E+00  0.2673E+00
     -3.771  0.7139E+00  0.3387E+00
     -3.672  0.4307E+00  0.3817E+00
     -3.572  0.7116E+00  0.4528E+00
     -3.472  0.6166E+00  0.5145E+00
     -3.372  0.1109E+01  0.6254E+00
     -3.272  0.5029E+00  0.6756E+00
     -3.172  0.2759E+00  0.7032E+00
     -3.072  0.8898E-01  0.7121E+00
     -2.972  0.4365E+00  0.7557E+00
     -2.872  0.6058E+00  0.8163E+00
     -2.772  0.1054E+01  0.9217E+00
     -2.672  0.9696E+00  0.1019E+01
     -2.572  0.8047E+00  0.1099E+01
     -2.472  0.1231E+01  0.1222E+01
     -2.372  0.3423E+00  0.1256E+01
     -2.272  0.4590E+00  0.1302E+01
     -2.172  0.5228E+00  0.1354E+01
     -2.072  0.1056E+01  0.1460E+01
     -1.972  0.2157E+01  0.1676E+01
     -1.872  0.6753E+00  0.1743E+01
     -1.772  0.2444E+00  0.1767E+01
     -1.672  0.2575E+00  0.1793E+01
     -1.572  0.1348E+01  0.1928E+01
     -1.473  0.1431E+01  0.2071E+01
     -1.373  0.1562E+01  0.2227E+01
     -1.273  0.1467E+01  0.2374E+01
     -1.173  0.9318E+00  0.2467E+01
     -1.073  0.1132E+01  0.2580E+01
     -0.973  0.3024E+01  0.2882E+01
     -0.873  0.1646E+01  0.3047E+01
     -0.773  0.3815E+00  0.3085E+01
     -0.673  0.1109E+01  0.3196E+01
     -0.573  0.1114E+01  0.3307E+01
     -0.473  0.1557E+01  0.3463E+01
     -0.373  0.5168E+01  0.3979E+01
     -0.273  0.3727E+01  0.4352E+01
     -0.173  0.1888E+01  0.4541E+01
     -0.073  0.3799E+01  0.4920E+01
      0.027  0.4533E+01  0.5373E+01
      0.127  0.6743E+01  0.6047E+01
      0.227  0.6997E+01  0.6747E+01
      0.327  0.5622E+01  0.7309E+01
      0.427  0.9727E+01  0.8281E+01
      0.527  0.7282E+01  0.9009E+01
      0.627  0.4693E+01  0.9478E+01
      0.726  0.1112E+02  0.1059E+02
      0.826  0.1269E+02  0.1186E+02
      0.926  0.1303E+02  0.1316E+02
      1.026  0.1126E+02  0.1429E+02
      1.126  0.1233E+02  0.1552E+02
      1.226  0.1231E+02  0.1675E+02
      1.326  0.1134E+02  0.1788E+02
      1.426  0.9401E+01  0.1882E+02
      1.526  0.1168E+02  0.1999E+02
      1.626  0.1171E+02  0.2116E+02
      1.726  0.1356E+02  0.2251E+02
      1.826  0.1563E+02  0.2408E+02
      1.926  0.1478E+02  0.2555E+02
      2.026  0.1444E+02  0.2700E+02
      2.126  0.1924E+02  0.2892E+02
      2.226  0.2093E+02  0.3101E+02
      2.326  0.1774E+02  0.3278E+02
      2.426  0.1969E+02  0.3475E+02
      2.526  0.2448E+02  0.3720E+02
      2.626  0.1662E+02  0.3886E+02
      2.726  0.1578E+02  0.4044E+02
      2.825  0.1476E+02  0.4191E+02
      2.925  0.1391E+02  0.4330E+02
      3.025  0.1293E+02  0.4460E+02
      3.125  0.1620E+02  0.4622E+02
      3.225  0.2133E+02  0.4835E+02
      3.325  0.1588E+02  0.4994E+02
      3.425  0.1623E+02  0.5156E+02
      3.525  0.2054E+02  0.5361E+02
      3.625  0.1591E+02  0.5520E+02
      3.725  0.1360E+02  0.5656E+02
      3.825  0.2083E+02  0.5864E+02
      3.925  0.2225E+02  0.6087E+02
      4.025  0.2821E+02  0.6369E+02
      4.125  0.2902E+02  0.6659E+02
      4.225  0.9237E+01  0.6751E+02
      4.325  0.1837E+01  0.6769E+02
      4.425  0.1469E+01  0.6784E+02
      4.525  0.2456E+01  0.6809E+02
      4.625  0.2031E+01  0.6829E+02
      4.725  0.4890E+01  0.6878E+02
      4.825  0.3505E+01  0.6913E+02
      4.925  0.1606E+01  0.6929E+02
      5.024  0.1170E+01  0.6940E+02
      5.124  0.8424E+00  0.6949E+02
      5.224  0.1878E+01  0.6968E+02
      5.324  0.1208E+01  0.6980E+02
      5.424  0.1484E+01  0.6995E+02
      5.524  0.4538E+01  0.7040E+02
      5.624  0.5182E+01  0.7092E+02
      5.724  0.9055E+00  0.7101E+02
      5.824  0.1115E+01  0.7112E+02
      5.924  0.8431E+00  0.7120E+02
      6.024  0.1825E+01  0.7139E+02
      6.124  0.1256E+01  0.7151E+02
      6.224  0.6897E+00  0.7158E+02
      6.324  0.2895E+01  0.7187E+02
      6.424  0.1481E+01  0.7202E+02
      6.524  0.3268E+01  0.7234E+02
      6.624  0.2014E+01  0.7255E+02
      6.724  0.1182E+01  0.7266E+02
      6.824  0.7281E+00  0.7274E+02
      6.924  0.1182E+01  0.7285E+02
      7.024  0.3357E+01  0.7319E+02
      7.124  0.1272E+01  0.7332E+02
      7.223  0.2500E+01  0.7357E+02
      7.323  0.1492E+01  0.7372E+02
      7.423  0.7201E+00  0.7379E+02
      7.523  0.7327E+00  0.7386E+02
      7.623  0.1246E+01  0.7399E+02
      7.723  0.2692E+01  0.7426E+02
      7.823  0.2837E+01  0.7454E+02
      7.923  0.6296E+00  0.7460E+02
      8.023  0.2250E+00  0.7462E+02
      8.123  0.2908E+01  0.7492E+02
      8.223  0.9351E+00  0.7501E+02
      8.323  0.7153E+00  0.7508E+02
      8.423  0.2962E+00  0.7511E+02
      8.523  0.1462E+01  0.7526E+02
      8.623  0.3783E+00  0.7529E+02
      8.723  0.6572E+00  0.7536E+02
      8.823  0.1196E+01  0.7548E+02
      8.923  0.2659E+01  0.7574E+02
      9.023  0.3033E+01  0.7605E+02
      9.123  0.1064E+01  0.7615E+02
      9.223  0.4066E+00  0.7619E+02
      9.323  0.1141E+00  0.7621E+02
      9.422  0.1148E-02  0.7621E+02
      9.522  0.1996E+00  0.7623E+02
      9.622  0.1089E+01  0.7634E+02
      9.722  0.2182E+00  0.7636E+02
      9.822  0.8037E+00  0.7644E+02
      9.922  0.2511E+01  0.7669E+02
     10.022  0.7649E+00  0.7676E+02
     10.122  0.8859E+00  0.7685E+02
     10.222  0.9443E+00  0.7695E+02
     10.322  0.2378E-01  0.7695E+02
     10.422  0.9527E-06  0.7695E+02
     10.522  0.2085E-13  0.7695E+02
     10.622  0.0000E+00  0.7695E+02
     10.722  0.0000E+00  0.7695E+02
     10.822  0.0000E+00  0.7695E+02
     10.922  0.0000E+00  0.7695E+02
     11.022  0.0000E+00  0.7695E+02
     11.122  0.0000E+00  0.7695E+02
     11.222  0.0000E+00  0.7695E+02
     11.322  0.0000E+00  0.7695E+02
     11.422  0.0000E+00  0.7695E+02
     11.522  0.0000E+00  0.7695E+02
