         265
 Energy:  -1272.0147962000001     
 X   0.00000000       0.00000000       0.00000000    
 X   14.2799997       0.00000000       0.00000000    
 X   0.00000000       14.2799997       0.00000000    
 X   0.00000000       0.00000000       14.2799997    
 X   14.2799997       14.2799997       0.00000000    
 X   14.2799997       0.00000000       14.2799997    
 X   0.00000000       14.2799997       14.2799997    
 X   14.2799997       14.2799997       14.2799997    
 Ni   0.00000000       0.00000000       0.00000000    
 Ni   0.00000000       1.78499997       1.78499997    
 Ni   1.78499997       0.00000000       1.78499997    
 Ni   1.78499997       1.78499997       0.00000000    
 Ni   0.00000000       0.00000000       3.56999993    
 Ni   0.00000000       1.78499997       5.35500002    
 Ni   1.78499997       0.00000000       5.35500002    
 Ni   1.78499997       1.78499997       3.56999993    
 Ni   0.00000000       0.00000000       7.13999987    
 Ni   0.00000000       1.78499997       8.92500019    
 Ni   1.78499997       0.00000000       8.92500019    
 Ni   1.78499997       1.78499997       7.13999987    
 Ni   0.00000000       0.00000000       10.7100000    
 Ni   0.00000000       1.78499997       12.4949999    
 Ni   1.78499997       0.00000000       12.4949999    
 Ni   1.78499997       1.78499997       10.7100000    
 Ni   0.00000000       3.56999993       0.00000000    
 Ni   0.00000000       5.35500002       1.78499997    
 Ni   1.78499997       3.56999993       1.78499997    
 Ni   1.78499997       5.35500002       0.00000000    
 Ni   0.00000000       3.56999993       3.56999993    
 Ni   0.00000000       5.35500002       5.35500002    
 Ni   1.78499997       3.56999993       5.35500002    
 Ni   1.78499997       5.35500002       3.56999993    
 Ni   0.00000000       3.56999993       7.13999987    
 Ni   0.00000000       5.35500002       8.92500019    
 Ni   1.78499997       3.56999993       8.92500019    
 Ni   1.78499997       5.35500002       7.13999987    
 Ni   0.00000000       3.56999993       10.7100000    
 Ni   0.00000000       5.35500002       12.4949999    
 Ni   1.78499997       3.56999993       12.4949999    
 Ni   1.78499997       5.35500002       10.7100000    
 Ni   0.00000000       7.13999987       0.00000000    
 Ni   0.00000000       8.92500019       1.78499997    
 Ni   1.78499997       7.13999987       1.78499997    
 Ni   1.78499997       8.92500019       0.00000000    
 Ni   0.00000000       7.13999987       3.56999993    
 Ni   0.00000000       8.92500019       5.35500002    
 Ni   1.78499997       7.13999987       5.35500002    
 Ni   1.78499997       8.92500019       3.56999993    
 Ni   0.00000000       7.13999987       7.13999987    
 Ni   0.00000000       8.92500019       8.92500019    
 Ni   1.78499997       7.13999987       8.92500019    
 Ni   1.78499997       8.92500019       7.13999987    
 Ni   0.00000000       7.13999987       10.7100000    
 Ni   0.00000000       8.92500019       12.4949999    
 Ni   1.78499997       7.13999987       12.4949999    
 Ni   1.78499997       8.92500019       10.7100000    
 Ni   0.00000000       10.7100000       0.00000000    
 Ni   0.00000000       12.4949999       1.78499997    
 Ni   1.78499997       10.7100000       1.78499997    
 Ni   1.78499997       12.4949999       0.00000000    
 Ni   0.00000000       10.7100000       3.56999993    
 Ni   0.00000000       12.4949999       5.35500002    
 Ni   1.78499997       10.7100000       5.35500002    
 Ni   1.78499997       12.4949999       3.56999993    
 Ni   0.00000000       10.7100000       7.13999987    
 Ni   0.00000000       12.4949999       8.92500019    
 Ni   1.78499997       10.7100000       8.92500019    
 Ni   1.78499997       12.4949999       7.13999987    
 Ni   0.00000000       10.7100000       10.7100000    
 Ni   0.00000000       12.4949999       12.4949999    
 Ni   1.78499997       10.7100000       12.4949999    
 Ni   1.78499997       12.4949999       10.7100000    
 Ni   3.56999993       0.00000000       0.00000000    
 Ni   3.56999993       1.78499997       1.78499997    
 Ni   5.35500002       0.00000000       1.78499997    
 Ni   5.35500002       1.78499997       0.00000000    
 Ni   3.56999993       0.00000000       3.56999993    
 Ni   3.56999993       1.78499997       5.35500002    
 Ni   5.35500002       0.00000000       5.35500002    
 Ni   5.35500002       1.78499997       3.56999993    
 Ni   3.56999993       0.00000000       7.13999987    
 Ni   3.56999993       1.78499997       8.92500019    
 Ni   5.35500002       0.00000000       8.92500019    
 Ni   5.35500002       1.78499997       7.13999987    
 Ni   3.56999993       0.00000000       10.7100000    
 Ni   3.56999993       1.78499997       12.4949999    
 Ni   5.35500002       0.00000000       12.4949999    
 Ni   5.35500002       1.78499997       10.7100000    
 Ni   3.56999993       3.56999993       0.00000000    
 Ni   3.56999993       5.35500002       1.78499997    
 Ni   5.35500002       3.56999993       1.78499997    
 Ni   5.35500002       5.35500002       0.00000000    
 Ni   3.56999993       3.56999993       3.56999993    
 Ni   3.56999993       5.35500002       5.35500002    
 Ni   5.35500002       3.56999993       5.35500002    
 Ni   5.35500002       5.35500002       3.56999993    
 Ni   3.56999993       3.56999993       7.13999987    
 Ni   3.56999993       5.35500002       8.92500019    
 Ni   5.35500002       3.56999993       8.92500019    
 Ni   5.35500002       5.35500002       7.13999987    
 Ni   3.56999993       3.56999993       10.7100000    
 Ni   3.56999993       5.35500002       12.4949999    
 Ni   5.35500002       3.56999993       12.4949999    
 Ni   5.35500002       5.35500002       10.7100000    
 Ni   3.56999993       7.13999987       0.00000000    
 Ni   3.56999993       8.92500019       1.78499997    
 Ni   5.35500002       7.13999987       1.78499997    
 Ni   5.35500002       8.92500019       0.00000000    
 Ni   3.56999993       7.13999987       3.56999993    
 Ni   3.56999993       8.92500019       5.35500002    
 Ni   5.35500002       7.13999987       5.35500002    
 Ni   5.35500002       8.92500019       3.56999993    
 Ni   3.56999993       7.13999987       7.13999987    
 Ni   3.56999993       8.92500019       8.92500019    
 Ni   5.35500002       7.13999987       8.92500019    
 Ni   5.35500002       8.92500019       7.13999987    
 Ni   3.56999993       7.13999987       10.7100000    
 Ni   3.56999993       8.92500019       12.4949999    
 Ni   5.35500002       7.13999987       12.4949999    
 Ni   5.35500002       8.92500019       10.7100000    
 Ni   3.56999993       10.7100000       0.00000000    
 Ni   3.56999993       12.4949999       1.78499997    
 Ni   5.35500002       10.7100000       1.78499997    
 Ni   5.35500002       12.4949999       0.00000000    
 Ni   3.56999993       10.7100000       3.56999993    
 Ni   3.56999993       12.4949999       5.35500002    
 Ni   5.35500002       10.7100000       5.35500002    
 Ni   5.35500002       12.4949999       3.56999993    
 Ni   3.56999993       10.7100000       7.13999987    
 Ni   3.56999993       12.4949999       8.92500019    
 Ni   5.35500002       10.7100000       8.92500019    
 Ni   5.35500002       12.4949999       7.13999987    
 Ni   3.56999993       10.7100000       10.7100000    
 Ni   3.56999993       12.4949999       12.4949999    
 Ni   5.35500002       10.7100000       12.4949999    
 Ni   5.35500002       12.4949999       10.7100000    
 Ni   7.13999987       0.00000000       0.00000000    
 Ni   7.13999987       1.78499997       1.78499997    
 Ni   8.92500019       0.00000000       1.78499997    
 Ni   8.92500019       1.78499997       0.00000000    
 Ni   7.13999987       0.00000000       3.56999993    
 Ni   7.13999987       1.78499997       5.35500002    
 Ni   8.92500019       0.00000000       5.35500002    
 Ni   8.92500019       1.78499997       3.56999993    
 Ni   7.13999987       0.00000000       7.13999987    
 Ni   7.13999987       1.78499997       8.92500019    
 Ni   8.92500019       0.00000000       8.92500019    
 Ni   8.92500019       1.78499997       7.13999987    
 Ni   7.13999987       0.00000000       10.7100000    
 Ni   7.13999987       1.78499997       12.4949999    
 Ni   8.92500019       0.00000000       12.4949999    
 Ni   8.92500019       1.78499997       10.7100000    
 Ni   7.13999987       3.56999993       0.00000000    
 Ni   7.13999987       5.35500002       1.78499997    
 Ni   8.92500019       3.56999993       1.78499997    
 Ni   8.92500019       5.35500002       0.00000000    
 Ni   7.13999987       3.56999993       3.56999993    
 Ni   7.13999987       5.35500002       5.35500002    
 Ni   8.92500019       3.56999993       5.35500002    
 Ni   8.92500019       5.35500002       3.56999993    
 Ni   7.13999987       3.56999993       7.13999987    
 Ni   7.13999987       5.35500002       8.92500019    
 Ni   8.92500019       3.56999993       8.92500019    
 Ni   8.92500019       5.35500002       7.13999987    
 Ni   7.13999987       3.56999993       10.7100000    
 Ni   7.13999987       5.35500002       12.4949999    
 Ni   8.92500019       3.56999993       12.4949999    
 Ni   8.92500019       5.35500002       10.7100000    
 Ni   7.13999987       7.13999987       0.00000000    
 Ni   7.13999987       8.92500019       1.78499997    
 Ni   8.92500019       7.13999987       1.78499997    
 Ni   8.92500019       8.92500019       0.00000000    
 Ni   7.13999987       7.13999987       3.56999993    
 Ni   7.13999987       8.92500019       5.35500002    
 Ni   8.92500019       7.13999987       5.35500002    
 Ni   8.92500019       8.92500019       3.56999993    
 Ni   7.13999987       7.13999987       7.13999987    
 Ni   7.13999987       8.92500019       8.92500019    
 Ni   8.92500019       7.13999987       8.92500019    
 Ni   8.92500019       8.92500019       7.13999987    
 Ni   7.13999987       7.13999987       10.7100000    
 Ni   7.13999987       8.92500019       12.4949999    
 Ni   8.92500019       7.13999987       12.4949999    
 Ni   8.92500019       8.92500019       10.7100000    
 Ni   7.13999987       10.7100000       0.00000000    
 Ni   7.13999987       12.4949999       1.78499997    
 Ni   8.92500019       10.7100000       1.78499997    
 Ni   8.92500019       12.4949999       0.00000000    
 Ni   7.13999987       10.7100000       3.56999993    
 Ni   7.13999987       12.4949999       5.35500002    
 Ni   8.92500019       10.7100000       5.35500002    
 Ni   8.92500019       12.4949999       3.56999993    
 Ni   7.13999987       10.7100000       7.13999987    
 Ni   7.13999987       12.4949999       8.92500019    
 Ni   8.92500019       10.7100000       8.92500019    
 Ni   8.92500019       12.4949999       7.13999987    
 Ni   7.13999987       10.7100000       10.7100000    
 Ni   7.13999987       12.4949999       12.4949999    
 Ni   8.92500019       10.7100000       12.4949999    
 Ni   8.92500019       12.4949999       10.7100000    
 Ni   10.7100000       0.00000000       0.00000000    
 Ni   10.7100000       1.78499997       1.78499997    
 Ni   12.4949999       0.00000000       1.78499997    
 Ni   12.4949999       1.78499997       0.00000000    
 Ni   10.7100000       0.00000000       3.56999993    
 Ni   10.7100000       1.78499997       5.35500002    
 Ni   12.4949999       0.00000000       5.35500002    
 Ni   12.4949999       1.78499997       3.56999993    
 Ni   10.7100000       0.00000000       7.13999987    
 Ni   10.7100000       1.78499997       8.92500019    
 Ni   12.4949999       0.00000000       8.92500019    
 Ni   12.4949999       1.78499997       7.13999987    
 Ni   10.7100000       0.00000000       10.7100000    
 Ni   10.7100000       1.78499997       12.4949999    
 Ni   12.4949999       0.00000000       12.4949999    
 Ni   12.4949999       1.78499997       10.7100000    
 Ni   10.7100000       3.56999993       0.00000000    
 Ni   10.7100000       5.35500002       1.78499997    
 Ni   12.4949999       3.56999993       1.78499997    
 Ni   12.4949999       5.35500002       0.00000000    
 Ni   10.7100000       3.56999993       3.56999993    
 Ni   10.7100000       5.35500002       5.35500002    
 Ni   12.4949999       3.56999993       5.35500002    
 Ni   12.4949999       5.35500002       3.56999993    
 Ni   10.7100000       3.56999993       7.13999987    
 Ni   10.7100000       5.35500002       8.92500019    
 Ni   12.4949999       3.56999993       8.92500019    
 Ni   12.4949999       5.35500002       7.13999987    
 Ni   10.7100000       3.56999993       10.7100000    
 Ni   10.7100000       5.35500002       12.4949999    
 Ni   12.4949999       3.56999993       12.4949999    
 Ni   12.4949999       5.35500002       10.7100000    
 Ni   10.7100000       7.13999987       0.00000000    
 Ni   10.7100000       8.92500019       1.78499997    
 Ni   12.4949999       7.13999987       1.78499997    
 Ni   12.4949999       8.92500019       0.00000000    
 Ni   10.7100000       7.13999987       3.56999993    
 Ni   10.7100000       8.92500019       5.35500002    
 Ni   12.4949999       7.13999987       5.35500002    
 Ni   12.4949999       8.92500019       3.56999993    
 Ni   10.7100000       7.13999987       7.13999987    
 Ni   10.7100000       8.92500019       8.92500019    
 Ni   12.4949999       7.13999987       8.92500019    
 Ni   12.4949999       8.92500019       7.13999987    
 Ni   10.7100000       7.13999987       10.7100000    
 Ni   10.7100000       8.92500019       12.4949999    
 Ni   12.4949999       7.13999987       12.4949999    
 Ni   12.4949999       8.92500019       10.7100000    
 Ni   10.7100000       10.7100000       0.00000000    
 Ni   10.7100000       12.4949999       1.78499997    
 Ni   12.4949999       10.7100000       1.78499997    
 Ni   12.4949999       12.4949999       0.00000000    
 Ni   10.7100000       10.7100000       3.56999993    
 Ni   10.7100000       12.4949999       5.35500002    
 Ni   12.4949999       10.7100000       5.35500002    
 Ni   12.4949999       12.4949999       3.56999993    
 Ni   10.7100000       10.7100000       7.13999987    
 Ni   10.7100000       12.4949999       8.92500019    
 Ni   12.4949999       10.7100000       8.92500019    
 Ni   12.4949999       12.4949999       7.13999987    
 Ni   10.7100000       10.7100000       10.7100000    
 Ni   10.7100000       12.4949999       12.4949999    
 Ni   12.4949999       10.7100000       12.4949999    
 Ni   12.4949999       12.4949999       10.7100000    
 O   0.892499983      0.892499983      0.892499983    
         265
 Energy:  -1275.3185768999999     
 X   0.00000000       0.00000000       0.00000000    
 X   14.2799997       0.00000000       0.00000000    
 X   0.00000000       14.2799997       0.00000000    
 X   0.00000000       0.00000000       14.2799997    
 X   14.2799997       14.2799997       0.00000000    
 X   14.2799997       0.00000000       14.2799997    
 X   0.00000000       14.2799997       14.2799997    
 X   14.2799997       14.2799997       14.2799997    
 Ni -0.101760000     -0.101760000     -0.101760000    
 Ni -0.101760000       1.88676000       1.88676000    
 Ni   1.88676000     -0.101760000       1.88676000    
 Ni   1.88676000       1.88676000     -0.101760000    
 Ni  -3.43999988E-03  -3.43999988E-03   3.57773995    
 Ni   1.10000001E-04   1.78489006       5.35477018    
 Ni   1.78489006       1.10000001E-04   5.35477018    
 Ni   1.78843999       1.78843999       3.57773995    
 Ni  -9.00000014E-05  -9.00000014E-05   7.14005995    
 Ni  -9.00000014E-05   1.78508997       8.92494011    
 Ni   1.78508997      -9.00000014E-05   8.92494011    
 Ni   1.78508997       1.78508997       7.14005995    
 Ni   1.10000001E-04   1.10000001E-04   10.7102299    
 Ni  -3.43999988E-03   1.78843999       12.4872599    
 Ni   1.78843999      -3.43999988E-03   12.4872599    
 Ni   1.78489006       1.78489006       10.7102299    
 Ni  -3.43999988E-03   3.57773995      -3.43999988E-03
 Ni   1.10000001E-04   5.35477018       1.78489006    
 Ni   1.78843999       3.57773995       1.78843999    
 Ni   1.78489006       5.35477018       1.10000001E-04
 Ni  -6.90000015E-04   3.57043004       3.57043004    
 Ni   3.99999990E-05   5.35540009       5.35540009    
 Ni   1.78471994       3.57002997       5.35495996    
 Ni   1.78471994       5.35495996       3.57002997    
 Ni   9.99999975E-06   3.57008004       7.14012003    
 Ni   7.99999980E-05   5.35502005       8.92502022    
 Ni   1.78498995       3.57008004       8.92488003    
 Ni   1.78491998       5.35502005       7.13997984    
 Ni   2.80000007E-04   3.57002997       10.7100401    
 Ni   2.80000007E-04   5.35495996       12.4949703    
 Ni   1.78568995       3.57043004       12.4945698    
 Ni   1.78496003       5.35540009       10.7096004    
 Ni  -9.00000014E-05   7.14005995      -9.00000014E-05
 Ni  -9.00000014E-05   8.92494011       1.78508997    
 Ni   1.78508997       7.14005995       1.78508997    
 Ni   1.78508997       8.92494011      -9.00000014E-05
 Ni   9.99999975E-06   7.14012003       3.57008004    
 Ni   7.99999980E-05   8.92502022       5.35502005    
 Ni   1.78491998       7.13997984       5.35502005    
 Ni   1.78498995       8.92488003       3.57008004    
 Ni  -4.99999987E-05   7.14012003       7.14012003    
 Ni  -4.99999987E-05   8.92488003       8.92488003    
 Ni   1.78505003       7.14012003       8.92488003    
 Ni   1.78505003       8.92488003       7.14012003    
 Ni   7.99999980E-05   7.13997984       10.7099800    
 Ni   9.99999975E-06   8.92488003       12.4949198    
 Ni   1.78498995       7.14012003       12.4949198    
 Ni   1.78491998       8.92502022       10.7099800    
 Ni   1.10000001E-04   10.7102299       1.10000001E-04
 Ni  -3.43999988E-03   12.4872599       1.78843999    
 Ni   1.78489006       10.7102299       1.78489006    
 Ni   1.78843999       12.4872599      -3.43999988E-03
 Ni   2.80000007E-04   10.7100401       3.57002997    
 Ni   2.80000007E-04   12.4949703       5.35495996    
 Ni   1.78496003       10.7096004       5.35540009    
 Ni   1.78568995       12.4945698       3.57043004    
 Ni   7.99999980E-05   10.7099800       7.13997984    
 Ni   9.99999975E-06   12.4949198       8.92488003    
 Ni   1.78491998       10.7099800       8.92502022    
 Ni   1.78498995       12.4949198       7.14012003    
 Ni   3.99999990E-05   10.7096004       10.7096004    
 Ni  -6.90000015E-04   12.4945698       12.4945698    
 Ni   1.78471994       10.7100401       12.4949703    
 Ni   1.78471994       12.4949703       10.7100401    
 Ni   3.57773995      -3.43999988E-03  -3.43999988E-03
 Ni   3.57773995       1.78843999       1.78843999    
 Ni   5.35477018       1.10000001E-04   1.78489006    
 Ni   5.35477018       1.78489006       1.10000001E-04
 Ni   3.57043004      -6.90000015E-04   3.57043004    
 Ni   3.57002997       1.78471994       5.35495996    
 Ni   5.35540009       3.99999990E-05   5.35540009    
 Ni   5.35495996       1.78471994       3.57002997    
 Ni   3.57008004       9.99999975E-06   7.14012003    
 Ni   3.57008004       1.78498995       8.92488003    
 Ni   5.35502005       7.99999980E-05   8.92502022    
 Ni   5.35502005       1.78491998       7.13997984    
 Ni   3.57002997       2.80000007E-04   10.7100401    
 Ni   3.57043004       1.78568995       12.4945698    
 Ni   5.35495996       2.80000007E-04   12.4949703    
 Ni   5.35540009       1.78496003       10.7096004    
 Ni   3.57043004       3.57043004      -6.90000015E-04
 Ni   3.57002997       5.35495996       1.78471994    
 Ni   5.35495996       3.57002997       1.78471994    
 Ni   5.35540009       5.35540009       3.99999990E-05
 Ni   3.56943989       3.56943989       3.56943989    
 Ni   3.57001996       5.35505009       5.35505009    
 Ni   5.35505009       3.57001996       5.35505009    
 Ni   5.35505009       5.35505009       3.57001996    
 Ni   3.57005000       3.57005000       7.14020014    
 Ni   3.56994009       5.35502005       8.92492962    
 Ni   5.35502005       3.56994009       8.92492962    
 Ni   5.35506010       5.35506010       7.14004993    
 Ni   3.56978989       3.56978989       10.7102604    
 Ni   3.56978989       5.35474014       12.4952097    
 Ni   5.35474014       3.56978989       12.4952097    
 Ni   5.35511017       5.35511017       10.7098904    
 Ni   3.57008004       7.14012003       9.99999975E-06
 Ni   3.57008004       8.92488003       1.78498995    
 Ni   5.35502005       7.13997984       1.78491998    
 Ni   5.35502005       8.92502022       7.99999980E-05
 Ni   3.57005000       7.14020014       3.57005000    
 Ni   3.56994009       8.92492962       5.35502005    
 Ni   5.35506010       7.14004993       5.35506010    
 Ni   5.35502005       8.92492962       3.56994009    
 Ni   3.57003999       7.14004993       7.14004993    
 Ni   3.57003999       8.92494965       8.92494965    
 Ni   5.35501003       7.14004993       8.92494965    
 Ni   5.35501003       8.92494965       7.14004993    
 Ni   3.56994009       7.14006996       10.7099800    
 Ni   3.57005000       8.92479992       12.4949503    
 Ni   5.35502005       7.14006996       12.4950600    
 Ni   5.35506010       8.92494965       10.7099400    
 Ni   3.57002997       10.7100401       2.80000007E-04
 Ni   3.57043004       12.4945698       1.78568995    
 Ni   5.35540009       10.7096004       1.78496003    
 Ni   5.35495996       12.4949703       2.80000007E-04
 Ni   3.56978989       10.7102604       3.56978989    
 Ni   3.56978989       12.4952097       5.35474014    
 Ni   5.35511017       10.7098904       5.35511017    
 Ni   5.35474014       12.4952097       3.56978989    
 Ni   3.56994009       10.7099800       7.14006996    
 Ni   3.57005000       12.4949503       8.92479992    
 Ni   5.35506010       10.7099400       8.92494965    
 Ni   5.35502005       12.4950600       7.14006996    
 Ni   3.57001996       10.7099504       10.7099504    
 Ni   3.56943989       12.4955597       12.4955597    
 Ni   5.35505009       10.7099504       12.4949799    
 Ni   5.35505009       12.4949799       10.7099504    
 Ni   7.14005995      -9.00000014E-05  -9.00000014E-05
 Ni   7.14005995       1.78508997       1.78508997    
 Ni   8.92494011      -9.00000014E-05   1.78508997    
 Ni   8.92494011       1.78508997      -9.00000014E-05
 Ni   7.14012003       9.99999975E-06   3.57008004    
 Ni   7.13997984       1.78491998       5.35502005    
 Ni   8.92502022       7.99999980E-05   5.35502005    
 Ni   8.92488003       1.78498995       3.57008004    
 Ni   7.14012003      -4.99999987E-05   7.14012003    
 Ni   7.14012003       1.78505003       8.92488003    
 Ni   8.92488003      -4.99999987E-05   8.92488003    
 Ni   8.92488003       1.78505003       7.14012003    
 Ni   7.13997984       7.99999980E-05   10.7099800    
 Ni   7.14012003       1.78498995       12.4949198    
 Ni   8.92488003       9.99999975E-06   12.4949198    
 Ni   8.92502022       1.78491998       10.7099800    
 Ni   7.14012003       3.57008004       9.99999975E-06
 Ni   7.13997984       5.35502005       1.78491998    
 Ni   8.92488003       3.57008004       1.78498995    
 Ni   8.92502022       5.35502005       7.99999980E-05
 Ni   7.14020014       3.57005000       3.57005000    
 Ni   7.14004993       5.35506010       5.35506010    
 Ni   8.92492962       3.56994009       5.35502005    
 Ni   8.92492962       5.35502005       3.56994009    
 Ni   7.14004993       3.57003999       7.14004993    
 Ni   7.14004993       5.35501003       8.92494965    
 Ni   8.92494965       3.57003999       8.92494965    
 Ni   8.92494965       5.35501003       7.14004993    
 Ni   7.14006996       3.56994009       10.7099800    
 Ni   7.14006996       5.35502005       12.4950600    
 Ni   8.92479992       3.57005000       12.4949503    
 Ni   8.92494965       5.35506010       10.7099400    
 Ni   7.14012003       7.14012003      -4.99999987E-05
 Ni   7.14012003       8.92488003       1.78505003    
 Ni   8.92488003       7.14012003       1.78505003    
 Ni   8.92488003       8.92488003      -4.99999987E-05
 Ni   7.14004993       7.14004993       3.57003999    
 Ni   7.14004993       8.92494965       5.35501003    
 Ni   8.92494965       7.14004993       5.35501003    
 Ni   8.92494965       8.92494965       3.57003999    
 Ni   7.14004993       7.14004993       7.14004993    
 Ni   7.14004993       8.92494965       8.92494965    
 Ni   8.92494965       7.14004993       8.92494965    
 Ni   8.92494965       8.92494965       7.14004993    
 Ni   7.14004993       7.14004993       10.7099895    
 Ni   7.14004993       8.92494965       12.4949598    
 Ni   8.92494965       7.14004993       12.4949598    
 Ni   8.92494965       8.92494965       10.7099895    
 Ni   7.13997984       10.7099800       7.99999980E-05
 Ni   7.14012003       12.4949198       1.78498995    
 Ni   8.92502022       10.7099800       1.78491998    
 Ni   8.92488003       12.4949198       9.99999975E-06
 Ni   7.14006996       10.7099800       3.56994009    
 Ni   7.14006996       12.4950600       5.35502005    
 Ni   8.92494965       10.7099400       5.35506010    
 Ni   8.92479992       12.4949503       3.57005000    
 Ni   7.14004993       10.7099895       7.14004993    
 Ni   7.14004993       12.4949598       8.92494965    
 Ni   8.92494965       10.7099895       8.92494965    
 Ni   8.92494965       12.4949598       7.14004993    
 Ni   7.14004993       10.7099400       10.7099400    
 Ni   7.14020014       12.4949503       12.4949503    
 Ni   8.92492962       10.7099800       12.4950600    
 Ni   8.92492962       12.4950600       10.7099800    
 Ni   10.7102299       1.10000001E-04   1.10000001E-04
 Ni   10.7102299       1.78489006       1.78489006    
 Ni   12.4872599      -3.43999988E-03   1.78843999    
 Ni   12.4872599       1.78843999      -3.43999988E-03
 Ni   10.7100401       2.80000007E-04   3.57002997    
 Ni   10.7096004       1.78496003       5.35540009    
 Ni   12.4949703       2.80000007E-04   5.35495996    
 Ni   12.4945698       1.78568995       3.57043004    
 Ni   10.7099800       7.99999980E-05   7.13997984    
 Ni   10.7099800       1.78491998       8.92502022    
 Ni   12.4949198       9.99999975E-06   8.92488003    
 Ni   12.4949198       1.78498995       7.14012003    
 Ni   10.7096004       3.99999990E-05   10.7096004    
 Ni   10.7100401       1.78471994       12.4949703    
 Ni   12.4945698      -6.90000015E-04   12.4945698    
 Ni   12.4949703       1.78471994       10.7100401    
 Ni   10.7100401       3.57002997       2.80000007E-04
 Ni   10.7096004       5.35540009       1.78496003    
 Ni   12.4945698       3.57043004       1.78568995    
 Ni   12.4949703       5.35495996       2.80000007E-04
 Ni   10.7102604       3.56978989       3.56978989    
 Ni   10.7098904       5.35511017       5.35511017    
 Ni   12.4952097       3.56978989       5.35474014    
 Ni   12.4952097       5.35474014       3.56978989    
 Ni   10.7099800       3.56994009       7.14006996    
 Ni   10.7099400       5.35506010       8.92494965    
 Ni   12.4949503       3.57005000       8.92479992    
 Ni   12.4950600       5.35502005       7.14006996    
 Ni   10.7099504       3.57001996       10.7099504    
 Ni   10.7099504       5.35505009       12.4949799    
 Ni   12.4955597       3.56943989       12.4955597    
 Ni   12.4949799       5.35505009       10.7099504    
 Ni   10.7099800       7.13997984       7.99999980E-05
 Ni   10.7099800       8.92502022       1.78491998    
 Ni   12.4949198       7.14012003       1.78498995    
 Ni   12.4949198       8.92488003       9.99999975E-06
 Ni   10.7099800       7.14006996       3.56994009    
 Ni   10.7099400       8.92494965       5.35506010    
 Ni   12.4950600       7.14006996       5.35502005    
 Ni   12.4949503       8.92479992       3.57005000    
 Ni   10.7099895       7.14004993       7.14004993    
 Ni   10.7099895       8.92494965       8.92494965    
 Ni   12.4949598       7.14004993       8.92494965    
 Ni   12.4949598       8.92494965       7.14004993    
 Ni   10.7099400       7.14004993       10.7099400    
 Ni   10.7099800       8.92492962       12.4950600    
 Ni   12.4949503       7.14020014       12.4949503    
 Ni   12.4950600       8.92492962       10.7099800    
 Ni   10.7096004       10.7096004       3.99999990E-05
 Ni   10.7100401       12.4949703       1.78471994    
 Ni   12.4949703       10.7100401       1.78471994    
 Ni   12.4945698       12.4945698      -6.90000015E-04
 Ni   10.7099504       10.7099504       3.57001996    
 Ni   10.7099504       12.4949799       5.35505009    
 Ni   12.4949799       10.7099504       5.35505009    
 Ni   12.4955597       12.4955597       3.56943989    
 Ni   10.7099400       10.7099400       7.14004993    
 Ni   10.7099800       12.4950600       8.92492962    
 Ni   12.4950600       10.7099800       8.92492962    
 Ni   12.4949503       12.4949503       7.14020014    
 Ni   10.7098904       10.7098904       10.7098904    
 Ni   10.7102604       12.4952097       12.4952097    
 Ni   12.4952097       10.7102604       12.4952097    
 Ni   12.4952097       12.4952097       10.7102604    
 O   0.892499983      0.892499983      0.892499983    
         265
 Energy:  -1275.4072667000000     
 X   0.00000000       0.00000000       0.00000000    
 X   14.2799997       0.00000000       0.00000000    
 X   0.00000000       14.2799997       0.00000000    
 X   0.00000000       0.00000000       14.2799997    
 X   14.2799997       14.2799997       0.00000000    
 X   14.2799997       0.00000000       14.2799997    
 X   0.00000000       14.2799997       14.2799997    
 X   14.2799997       14.2799997       14.2799997    
 Ni -0.130469993     -0.130469993     -0.130469993    
 Ni -0.130469993       1.91547000       1.91547000    
 Ni   1.91547000     -0.130469993       1.91547000    
 Ni   1.91547000       1.91547000     -0.130469993    
 Ni  -4.41000005E-03  -4.41000005E-03   3.57992005    