       N       E                     dE             d eps       ncg     rms          rms(c)
DAV:   1     0.240462387878E+05    0.24046E+05   -0.99567E+05 12448   0.163E+03
DAV:   2     0.348422609814E+03   -0.23698E+05   -0.23036E+05 12312   0.500E+02
DAV:   3    -0.143079244950E+04   -0.17792E+04   -0.15012E+04 12896   0.166E+02
DAV:   4    -0.163618801883E+04   -0.20540E+03   -0.17557E+03 21472   0.499E+01
DAV:   5    -0.164332570375E+04   -0.71377E+01   -0.69611E+01 16544   0.115E+01    0.144E+02
DAV:   6    -0.150050503268E+04    0.14282E+03   -0.32519E+03 13044   0.105E+02    0.147E+02
DAV:   7    -0.147290645847E+04    0.27599E+02   -0.44623E+02 13136   0.806E+01    0.143E+02
DAV:   8    -0.151196363708E+04   -0.39057E+02   -0.21795E+02 13448   0.920E+01    0.140E+02
DAV:   9    -0.156644578701E+04   -0.54482E+02   -0.18507E+02 14544   0.943E+01    0.179E+02
DAV:  10    -0.154368437182E+04    0.22761E+02   -0.15308E+02 13584   0.776E+01    0.136E+02
DAV:  11    -0.149234249830E+04    0.51342E+02   -0.10822E+02 13376   0.626E+01    0.135E+02
DAV:  12    -0.150108702116E+04   -0.87445E+01   -0.88170E+01 13120   0.590E+01    0.135E+02
DAV:  13    -0.141622669143E+04    0.84860E+02   -0.43960E+01 13104   0.370E+01    0.744E+01
DAV:  14    -0.140922801533E+04    0.69987E+01   -0.26606E+01 13152   0.282E+01    0.742E+01
DAV:  15    -0.141103640230E+04   -0.18084E+01   -0.21217E+01 13696   0.253E+01    0.897E+01
DAV:  16    -0.140579331505E+04    0.52431E+01   -0.14392E+01 13928   0.188E+01    0.664E+01
DAV:  17    -0.139325370236E+04    0.12540E+02   -0.12170E+01 13240   0.188E+01    0.456E+01
DAV:  18    -0.138983955690E+04    0.34141E+01   -0.56233E+00 13456   0.124E+01    0.367E+01
DAV:  19    -0.138956766546E+04    0.27189E+00   -0.35287E+00 14560   0.909E+00    0.350E+01
DAV:  20    -0.138817065906E+04    0.13970E+01   -0.29942E+00 13408   0.938E+00    0.255E+01
DAV:  21    -0.138784214335E+04    0.32852E+00   -0.13717E+00 20368   0.209E+00    0.237E+01
DAV:  22    -0.138763820491E+04    0.20394E+00   -0.40296E-01 13976   0.342E+00    0.224E+01
DAV:  23    -0.138709283844E+04    0.54537E+00   -0.28540E-01 14032   0.317E+00    0.202E+01
DAV:  24    -0.138739405979E+04   -0.30122E+00   -0.72354E-01 14024   0.527E+00    0.207E+01
DAV:  25    -0.138676209388E+04    0.63197E+00   -0.27567E-01 14552   0.274E+00    0.167E+01
DAV:  26    -0.138638663720E+04    0.37546E+00   -0.37412E-01 15144   0.365E+00    0.151E+01
DAV:  27    -0.138618745769E+04    0.19918E+00   -0.52813E-01 15376   0.411E+00    0.131E+01
DAV:  28    -0.138585105462E+04    0.33640E+00   -0.32305E-01 14216   0.270E+00    0.932E+00
DAV:  29    -0.138583888990E+04    0.12165E-01   -0.16092E-01 13464   0.141E+00    0.836E+00
DAV:  30    -0.138579601043E+04    0.42879E-01   -0.12495E-01 14336   0.177E+00    0.723E+00
DAV:  31    -0.138576337093E+04    0.32640E-01   -0.66680E-02 14016   0.116E+00    0.602E+00
DAV:  32    -0.138575732035E+04    0.60506E-02   -0.42644E-02 13704   0.976E-01    0.638E+00
DAV:  33    -0.138573652610E+04    0.20794E-01   -0.21913E-02 13880   0.625E-01    0.550E+00
DAV:  34    -0.138569957161E+04    0.36954E-01   -0.52671E-02 14104   0.132E+00    0.394E+00
DAV:  35    -0.138570277528E+04   -0.32037E-02   -0.42393E-02 14440   0.103E+00    0.371E+00
DAV:  36    -0.138567954121E+04    0.23234E-01   -0.25805E-02 14032   0.794E-01    0.312E+00
DAV:  37    -0.138568255214E+04   -0.30109E-02   -0.21818E-02 14960   0.633E-01    0.312E+00
DAV:  38    -0.138567301795E+04    0.95342E-02   -0.77809E-03 13736   0.267E-01    0.263E+00
DAV:  39    -0.138566845360E+04    0.45643E-02   -0.30700E-03 14936   0.250E-01    0.237E+00
DAV:  40    -0.138565660960E+04    0.11844E-01   -0.35551E-03 17216   0.297E-01    0.155E+00
DAV:  41    -0.138565130496E+04    0.53046E-02   -0.43157E-03 23656   0.167E-01    0.806E-01
DAV:  42    -0.138565124313E+04    0.61827E-04   -0.85587E-04 12776   0.581E-02    0.795E-01
DAV:  43    -0.138565034162E+04    0.90151E-03   -0.11047E-04 14032   0.544E-02    0.549E-01
DAV:  44    -0.138564991127E+04    0.43036E-03   -0.35537E-04 19640   0.651E-02    0.369E-01
DAV:  45    -0.138564967427E+04    0.23699E-03   -0.43410E-04 18672   0.936E-02    0.216E-01
DAV:  46    -0.138564957078E+04    0.10349E-03   -0.25536E-04 12690   0.448E-02    0.113E-01
DAV:  47    -0.138564955785E+04    0.12932E-04   -0.48470E-05 15848   0.131E-02    0.950E-02
DAV:  48    -0.138564954851E+04    0.93389E-05   -0.13406E-05 15416   0.995E-03    0.713E-02
DAV:  49    -0.138564954358E+04    0.49240E-05   -0.64015E-06 13912   0.980E-03    0.479E-02
DAV:  50    -0.138564953856E+04    0.50292E-05   -0.47090E-06 18728   0.581E-03    0.310E-02
DAV:  51    -0.138564953496E+04    0.35941E-05   -0.16857E-06 17776   0.618E-03    0.110E-02
DAV:  52    -0.138564953551E+04   -0.54755E-06   -0.11655E-06 13802   0.195E-03    0.850E-03
DAV:  53    -0.138564953599E+04   -0.48378E-06   -0.12488E-07  6498   0.135E-03    0.485E-03
DAV:  54    -0.138564953627E+04   -0.27577E-06   -0.70438E-08  6327   0.848E-04    0.294E-03
DAV:  55    -0.138564953625E+04    0.16385E-07   -0.38237E-08  6327   0.427E-04
   1 F= -.14992843E+04 E0= -.14985095E+04  d E =-.149928E+04
       N       E                     dE             d eps       ncg     rms          rms(c)
DAV:   1    -0.138512036547E+04    0.52917E+00   -0.16153E+03 12448   0.338E+01    0.139E+01
DAV:   2    -0.139592222230E+04   -0.10802E+02   -0.42976E+01 16058   0.175E+01    0.392E+01
DAV:   3    -0.139783945519E+04   -0.19172E+01   -0.20248E+01 13546   0.253E+01    0.568E+01
DAV:   4    -0.139534963136E+04    0.24898E+01   -0.70206E+00 16376   0.141E+01    0.442E+01
DAV:   5    -0.139351221206E+04    0.18374E+01   -0.38625E+00 14120   0.108E+01    0.384E+01
DAV:   6    -0.139144504462E+04    0.20672E+01   -0.26459E+00 13664   0.104E+01    0.304E+01
DAV:   7    -0.139020472127E+04    0.12403E+01   -0.16059E+00 13816   0.732E+00    0.202E+01
DAV:   8    -0.138935987441E+04    0.84485E+00   -0.75288E-01 14832   0.389E+00    0.116E+01
DAV:   9    -0.138944706309E+04   -0.87189E-01   -0.41672E-01 13664   0.361E+00    0.145E+01
DAV:  10    -0.138933051592E+04    0.11655E+00   -0.36381E-01 13672   0.363E+00    0.117E+01
DAV:  11    -0.138939698673E+04   -0.66471E-01   -0.20815E-01 14104   0.288E+00    0.125E+01
DAV:  12    -0.138965723809E+04   -0.26025E+00   -0.47046E-01 14640   0.443E+00    0.142E+01
DAV:  13    -0.138911082659E+04    0.54641E+00   -0.35413E-01 14160   0.361E+00    0.717E+00
DAV:  14    -0.138906974778E+04    0.41079E-01   -0.14208E-01 15328   0.177E+00    0.626E+00
DAV:  15    -0.138901528007E+04    0.54468E-01   -0.70892E-02 14080   0.113E+00    0.441E+00
DAV:  16    -0.138898490127E+04    0.30379E-01   -0.34363E-02 13656   0.839E-01    0.339E+00
DAV:  17    -0.138899626042E+04   -0.11359E-01   -0.25490E-02 16288   0.785E-01    0.383E+00
DAV:  18    -0.138896071056E+04    0.35550E-01   -0.19806E-02 15152   0.783E-01    0.184E+00
DAV:  19    -0.138896376722E+04   -0.30567E-02   -0.11458E-02 17344   0.506E-01    0.205E+00
DAV:  20    -0.138895822287E+04    0.55444E-02   -0.11036E-02 16368   0.528E-01    0.149E+00
DAV:  21    -0.138895289199E+04    0.53309E-02   -0.61269E-03 15192   0.399E-01    0.804E-01
DAV:  22    -0.138895355614E+04   -0.66415E-03   -0.25635E-03 16216   0.208E-01    0.872E-01
DAV:  23    -0.138895207279E+04    0.14833E-02   -0.17959E-03 14368   0.206E-01    0.486E-01
DAV:  24    -0.138895199981E+04    0.72981E-04   -0.75642E-04 14832   0.125E-01    0.454E-01
DAV:  25    -0.138895163908E+04    0.36073E-03   -0.37175E-04 14728   0.995E-02    0.232E-01
DAV:  26    -0.138895155376E+04    0.85321E-04   -0.35165E-04 13928   0.915E-02    0.171E-01
DAV:  27    -0.138895157124E+04   -0.17483E-04   -0.18852E-04 14600   0.627E-02    0.160E-01
DAV:  28    -0.138895147785E+04    0.93389E-04   -0.12364E-04 13592   0.532E-02    0.419E-02
DAV:  29    -0.138895148940E+04   -0.11549E-04   -0.59603E-05 20378   0.215E-02    0.613E-02
DAV:  30    -0.138895147970E+04    0.97050E-05   -0.19910E-05 14466   0.230E-02    0.326E-02
DAV:  31    -0.138895147833E+04    0.13653E-05   -0.72903E-06 13248   0.111E-02    0.206E-02
DAV:  32    -0.138895147767E+04    0.66344E-06   -0.32524E-06 13264   0.848E-03    0.150E-02
DAV:  33    -0.138895147698E+04    0.68991E-06   -0.12938E-06 12858   0.438E-03    0.526E-03
DAV:  34    -0.138895147699E+04   -0.71886E-08   -0.55775E-07 11410   0.151E-03
   2 F= -.15025844E+04 E0= -.15018103E+04  d E =-.330010E+01
       N       E                     dE             d eps       ncg     rms          rms(c)
DAV:   1    -0.138888517908E+04    0.66298E-01   -0.11011E+02 12315   0.906E+00    0.230E+00
DAV:   2    -0.138942562356E+04   -0.54044E+00   -0.19111E+00 15135   0.328E+00    0.124E+01
DAV:   3    -0.138922719167E+04    0.19843E+00   -0.48382E-01 13144   0.324E+00    0.921E+00
DAV:   4    -0.138914886833E+04    0.78323E-01   -0.25432E-01 14984   0.234E+00    0.661E+00
DAV:   5    -0.138934005706E+04   -0.19119E+00   -0.18115E-01 15448   0.250E+00    0.104E+01
DAV:   6    -0.138915695396E+04    0.18310E+00   -0.15373E-01 14576   0.243E+00    0.551E+00
DAV:   7    -0.138905646276E+04    0.10049E+00   -0.67254E-02 14328   0.161E+00    0.223E+00
DAV:   8    -0.138906923302E+04   -0.12770E-01   -0.23668E-02 14768   0.984E-01    0.330E+00
DAV:   9    -0.138908558498E+04   -0.16352E-01   -0.38157E-02 15080   0.119E+00    0.361E+00
DAV:  10    -0.138905661948E+04    0.28966E-01   -0.28360E-02 14480   0.107E+00    0.238E+00
DAV:  11    -0.138904478035E+04    0.11839E-01   -0.10837E-02 14584   0.625E-01    0.115E+00
DAV:  12    -0.138905382414E+04   -0.90438E-02   -0.11271E-02 15320   0.609E-01    0.197E+00
DAV:  13    -0.138904273841E+04    0.11086E-01   -0.82267E-03 14632   0.541E-01    0.687E-01
DAV:  14    -0.138904129489E+04    0.14435E-02   -0.19489E-03 14376   0.248E-01    0.390E-01
DAV:  15    -0.138904254022E+04   -0.12453E-02   -0.15336E-03 15120   0.214E-01    0.707E-01
DAV:  16    -0.138904089156E+04    0.16487E-02   -0.11471E-03 14424   0.198E-01    0.165E-01
DAV:  17    -0.138904082199E+04    0.69567E-04   -0.30750E-04 18522   0.630E-02    0.116E-01
DAV:  18    -0.138904082838E+04   -0.63883E-05   -0.11342E-04 13938   0.467E-02    0.123E-01
DAV:  19    -0.138904078069E+04    0.47690E-04   -0.59708E-05 13338   0.383E-02    0.364E-02
DAV:  20    -0.138904079206E+04   -0.11374E-04   -0.26788E-05 17448   0.218E-02    0.666E-02
DAV:  21    -0.138904077981E+04    0.12257E-04   -0.15868E-05 14784   0.201E-02    0.292E-02
DAV:  22    -0.138904077844E+04    0.13623E-05   -0.59814E-06 14450   0.113E-02    0.233E-02
DAV:  23    -0.138904078137E+04   -0.29284E-05   -0.51102E-06 15146   0.111E-02    0.353E-02
DAV:  24    -0.138904077693E+04    0.44379E-05   -0.40461E-06 14010   0.108E-02    0.764E-03
DAV:  25    -0.138904077757E+04   -0.63916E-06   -0.12808E-06 15832   0.458E-03    0.164E-02
DAV:  26    -0.138904077676E+04    0.81613E-06   -0.74420E-07 12498   0.439E-03    0.412E-03
DAV:  27    -0.138904077671E+04    0.44922E-07   -0.16957E-07  6610   0.158E-03
   3 F= -.15026743E+04 E0= -.15019010E+04  d E =-.339001E+01
       N       E                     dE             d eps       ncg     rms          rms(c)
DAV:   1    -0.138904208377E+04   -0.13070E-02   -0.27194E+00 12326   0.144E+00    0.291E-01
DAV:   2    -0.138905703662E+04   -0.14953E-01   -0.31807E-02 13520   0.520E-01    0.222E+00
DAV:   3    -0.138904814185E+04    0.88948E-02   -0.11998E-02 13080   0.472E-01    0.117E+00
DAV:   4    -0.138904516796E+04    0.29739E-02   -0.34405E-03 13560   0.265E-01    0.482E-01
DAV:   5    -0.138904671651E+04   -0.15485E-02   -0.20669E-03 17312   0.224E-01    0.903E-01
DAV:   6    -0.138904663847E+04    0.78039E-04   -0.18855E-03 15512   0.264E-01    0.728E-01
DAV:   7    -0.138904582878E+04    0.80969E-03   -0.21292E-03 15160   0.285E-01    0.618E-01
DAV:   8    -0.138904620994E+04   -0.38116E-03   -0.11138E-03 15792   0.206E-01    0.716E-01
DAV:   9    -0.138904577767E+04    0.43227E-03   -0.11438E-03 15376   0.206E-01    0.508E-01
DAV:  10    -0.138904493890E+04    0.83878E-03   -0.68809E-04 14968   0.159E-01    0.238E-01
DAV:  11    -0.138904478920E+04    0.14969E-03   -0.22105E-04 15360   0.821E-02    0.138E-01
DAV:  12    -0.138904510864E+04   -0.31944E-03   -0.17329E-04 15568   0.842E-02    0.362E-01
DAV:  13    -0.138904477380E+04    0.33484E-03   -0.14277E-04 14752   0.799E-02    0.849E-02
DAV:  14    -0.138904474503E+04    0.28767E-04   -0.32339E-05 14162   0.307E-02    0.422E-02
DAV:  15    -0.138904476034E+04   -0.15316E-04   -0.24543E-05 14072   0.261E-02    0.764E-02
DAV:  16    -0.138904473916E+04    0.21182E-04   -0.19066E-05 13656   0.235E-02    0.159E-02
DAV:  17    -0.138904473875E+04    0.41130E-06   -0.49488E-06 19504   0.674E-03    0.141E-02
DAV:  18    -0.138904473881E+04   -0.63548E-07   -0.13399E-06 13608   0.524E-03    0.130E-02
DAV:  19    -0.138904473835E+04    0.46869E-06   -0.71744E-07 12232   0.444E-03    0.616E-03
DAV:  20    -0.138904473893E+04   -0.58593E-06   -0.48625E-07 11176   0.378E-03    0.137E-02
DAV:  21    -0.138904473837E+04    0.56232E-06   -0.40926E-07 10594   0.364E-03    0.317E-03
DAV:  22    -0.138904473842E+04   -0.48029E-07   -0.99141E-08  6290   0.174E-03
   4 F= -.15026781E+04 E0= -.15019047E+04  d E =-.339385E+01
       N       E                     dE             d eps       ncg     rms          rms(c)
DAV:   1    -0.138910404214E+04   -0.59304E-01   -0.21244E+01 12320   0.461E+00    0.835E-01
DAV:   2    -0.138954615835E+04   -0.44212E+00   -0.34851E-01 13456   0.274E+00    0.117E+01
DAV:   3    -0.138920463999E+04    0.34152E+00   -0.24172E-01 13560   0.264E+00    0.563E+00
DAV:   4    -0.138913575898E+04    0.68881E-01   -0.73738E-02 14024   0.111E+00    0.190E+00
DAV:   5    -0.138913553123E+04    0.22775E-03   -0.29721E-02 15072   0.715E-01    0.179E+00
DAV:   6    -0.138915214842E+04   -0.16617E-01   -0.21440E-02 14536   0.771E-01    0.301E+00
DAV:   7    -0.138913374546E+04    0.18403E-01   -0.16966E-02 13800   0.707E-01    0.135E+00
DAV:   8    -0.138912812130E+04    0.56242E-02   -0.52030E-03 13872   0.390E-01    0.458E-01
DAV:   9    -0.138912953314E+04   -0.14118E-02   -0.28056E-03 14448   0.285E-01    0.858E-01
DAV:  10    -0.138913091171E+04   -0.13786E-02   -0.22877E-03 14000   0.294E-01    0.113E+00
DAV:  11    -0.138912772908E+04    0.31826E-02   -0.18383E-03 13776   0.264E-01    0.287E-01
DAV:  12    -0.138912752328E+04    0.20581E-03   -0.54216E-04 14752   0.113E-01    0.202E-01
DAV:  13    -0.138912771223E+04   -0.18895E-03   -0.41220E-04 13984   0.996E-02    0.295E-01
DAV:  14    -0.138912743390E+04    0.27833E-03   -0.33324E-04 13752   0.941E-02    0.985E-02
DAV:  15    -0.138912749590E+04   -0.62006E-04   -0.13119E-04 16424   0.540E-02    0.164E-01
DAV:  16    -0.138912743858E+04    0.57319E-04   -0.87867E-05 14752   0.502E-02    0.976E-02
DAV:  17    -0.138912741177E+04    0.26811E-04   -0.33864E-05 14456   0.320E-02    0.478E-02
DAV:  18    -0.138912741635E+04   -0.45796E-05   -0.21090E-05 14712   0.212E-02    0.609E-02
DAV:  19    -0.138912740467E+04    0.11681E-04   -0.15305E-05 13832   0.201E-02    0.195E-02
DAV:  20    -0.138912740649E+04   -0.18225E-05   -0.63830E-06 16336   0.105E-02    0.289E-02
DAV:  21    -0.138912740418E+04    0.23130E-05   -0.33564E-06 14080   0.877E-03    0.128E-02
DAV:  22    -0.138912740397E+04    0.21361E-06   -0.11691E-06 13738   0.405E-03    0.998E-03
DAV:  23    -0.138912740445E+04   -0.48662E-06   -0.87421E-07 12866   0.448E-03    0.150E-02
DAV:  24    -0.138912740374E+04    0.71737E-06   -0.74981E-07 12258   0.442E-03    0.425E-03
DAV:  25    -0.138912740380E+04   -0.62835E-07   -0.19390E-07  6522   0.199E-03
   5 F= -.15027601E+04 E0= -.15019864E+04  d E =-.819573E-01
       N       E                     dE             d eps       ncg     rms          rms(c)
DAV:   1    -0.138895961629E+04    0.16779E+00   -0.19144E+02 12320   0.139E+01    0.283E+00
DAV:   2    -0.139295682431E+04   -0.39972E+01   -0.36700E+00 13552   0.902E+00    0.301E+01
DAV:   3    -0.139003812355E+04    0.29187E+01   -0.23463E+00 13616   0.894E+00    0.182E+01
DAV:   4    -0.138932172189E+04    0.71640E+00   -0.88768E-01 14144   0.369E+00    0.556E+00
DAV:   5    -0.138936686838E+04   -0.45146E-01   -0.36892E-01 15512   0.236E+00    0.636E+00
DAV:   6    -0.138951402682E+04   -0.14716E+00   -0.22867E-01 13784   0.246E+00    0.969E+00
DAV:   7    -0.138929921295E+04    0.21481E+00   -0.16353E-01 13640   0.225E+00    0.337E+00
DAV:   8    -0.138927637980E+04    0.22833E-01   -0.49345E-02 13888   0.109E+00    0.211E+00
DAV:   9    -0.138931053018E+04   -0.34150E-01   -0.32344E-02 13840   0.101E+00    0.430E+00
DAV:  10    -0.138927040661E+04    0.40124E-01   -0.22391E-02 13712   0.902E-01    0.151E+00
DAV:  11    -0.138926397980E+04    0.64268E-02   -0.73281E-03 13354   0.469E-01    0.795E-01
DAV:  12    -0.138926579191E+04   -0.18121E-02   -0.55460E-03 13840   0.362E-01    0.107E+00
DAV:  13    -0.138926296458E+04    0.28273E-02   -0.54761E-03 13442   0.372E-01    0.579E-01
DAV:  14    -0.138926331204E+04   -0.34746E-03   -0.30232E-03 15202   0.271E-01    0.599E-01
DAV:  15    -0.138926364466E+04   -0.33262E-03   -0.21989E-03 14218   0.240E-01    0.660E-01
DAV:  16    -0.138926221977E+04    0.14249E-02   -0.12905E-03 13722   0.194E-01    0.221E-01
DAV:  17    -0.138926239669E+04   -0.17692E-03   -0.48693E-04 16840   0.102E-01    0.307E-01
DAV:  18    -0.138926217266E+04    0.22403E-03   -0.33112E-04 14920   0.919E-02    0.174E-01
DAV:  19    -0.138926210634E+04    0.66317E-04   -0.14697E-04 14464   0.619E-02    0.114E-01
DAV:  20    -0.138926212782E+04   -0.21478E-04   -0.86153E-05 15216   0.428E-02    0.123E-01
DAV:  21    -0.138926207526E+04    0.52557E-04   -0.64236E-05 13936   0.400E-02    0.366E-02
DAV:  22    -0.138926208593E+04   -0.10671E-04   -0.27303E-05 17728   0.200E-02    0.667E-02
DAV:  23    -0.138926207492E+04    0.11017E-04   -0.15873E-05 14536   0.197E-02    0.322E-02
DAV:  24    -0.138926207321E+04    0.17067E-05   -0.52900E-06 14282   0.933E-03    0.233E-02
DAV:  25    -0.138926207427E+04   -0.10607E-05   -0.36090E-06 15304   0.839E-03    0.296E-02
DAV:  26    -0.138926207167E+04    0.26052E-05   -0.25732E-06 14104   0.795E-03    0.616E-03
DAV:  27    -0.138926207202E+04   -0.35392E-06   -0.10355E-06 14288   0.382E-03    0.109E-02
DAV:  28    -0.138926207161E+04    0.40577E-06   -0.65732E-07 11530   0.383E-03    0.277E-03
DAV:  29    -0.138926207170E+04   -0.80152E-07   -0.15273E-07  6399   0.141E-03
   6 F= -.15028946E+04 E0= -.15021203E+04  d E =-.216448E+00
       N       E                     dE             d eps       ncg     rms          rms(c)
DAV:   1    -0.138924982266E+04    0.12249E-01   -0.18359E+01 12320   0.429E+00    0.751E-01
DAV:   2    -0.138959923196E+04   -0.34941E+00   -0.28379E-01 13504   0.245E+00    0.104E+01
DAV:   3    -0.138932880975E+04    0.27042E+00   -0.20163E-01 13560   0.237E+00    0.493E+00
DAV:   4    -0.138927629035E+04    0.52519E-01   -0.61483E-02 14128   0.979E-01    0.172E+00
DAV:   5    -0.138927621040E+04    0.79951E-04   -0.26311E-02 14856   0.640E-01    0.162E+00
DAV:   6    -0.138929047218E+04   -0.14262E-01   -0.17203E-02 14600   0.696E-01    0.277E+00
DAV:   7    -0.138927422150E+04    0.16251E-01   -0.13585E-02 13776   0.641E-01    0.115E+00
DAV:   8    -0.138927011410E+04    0.41074E-02   -0.42942E-03 13880   0.336E-01    0.392E-01
DAV:   9    -0.138927156828E+04   -0.14542E-02   -0.22966E-03 14376   0.259E-01    0.822E-01
DAV:  10    -0.138927203105E+04   -0.46277E-03   -0.19580E-03 14032   0.262E-01    0.926E-01
DAV:  11    -0.138926985116E+04    0.21799E-02   -0.13853E-03 13888   0.226E-01    0.252E-01
DAV:  12    -0.138926971576E+04    0.13540E-03   -0.45936E-04 15072   0.999E-02    0.186E-01
DAV:  13    -0.138926983633E+04   -0.12057E-03   -0.33102E-04 14256   0.866E-02    0.250E-01
DAV:  14    -0.138926963603E+04    0.20029E-03   -0.25112E-04 13904   0.811E-02    0.835E-02
DAV:  15    -0.138926970101E+04   -0.64973E-04   -0.11326E-04 16080   0.500E-02    0.157E-01
DAV:  16    -0.138926964064E+04    0.60372E-04   -0.87903E-05 14760   0.470E-02    0.823E-02
DAV:  17    -0.138926962164E+04    0.18993E-04   -0.30300E-05 14560   0.277E-02    0.410E-02
DAV:  18    -0.138926962113E+04    0.51217E-06   -0.14412E-05 14136   0.160E-02    0.397E-02
DAV:  19    -0.138926961660E+04    0.45279E-05   -0.92686E-06 13488   0.140E-02    0.152E-02
DAV:  20    -0.138926961851E+04   -0.19081E-05   -0.40561E-06 15280   0.876E-03    0.268E-02
DAV:  21    -0.138926961654E+04    0.19731E-05   -0.26685E-06 13968   0.790E-03    0.940E-03
DAV:  22    -0.138926961660E+04   -0.66648E-07   -0.96447E-07 13058   0.364E-03
   7 F= -.15029027E+04 E0= -.15021282E+04  d E =-.224598E+00
       N       E                     dE             d eps       ncg     rms          rms(c)
DAV:   1    -0.138927775459E+04   -0.81381E-02   -0.16475E+01 12312   0.419E+00    0.789E-01
DAV:   2    -0.138993512518E+04   -0.65737E+00   -0.32565E-01 13400   0.286E+00    0.156E+01
DAV:   3    -0.138935810839E+04    0.57702E+00   -0.25096E-01 13544   0.277E+00    0.484E+00
DAV:   4    -0.138929693215E+04    0.61176E-01   -0.52281E-02 14016   0.995E-01    0.129E+00
DAV:   5    -0.138931399868E+04   -0.17067E-01   -0.33360E-02 14800   0.778E-01    0.272E+00
DAV:   6    -0.138931312055E+04    0.87813E-03   -0.23766E-02 13968   0.814E-01    0.260E+00
DAV:   7    -0.138929727755E+04    0.15843E-01   -0.16815E-02 13824   0.692E-01    0.102E+00
DAV:   8    -0.138929680266E+04    0.47488E-03   -0.75292E-03 13984   0.449E-01    0.902E-01
DAV:   9    -0.138929715505E+04   -0.35239E-03   -0.44360E-03 13896   0.358E-01    0.990E-01
DAV:  10    -0.138929498697E+04    0.21681E-02   -0.22982E-03 13760   0.271E-01    0.629E-01
DAV:  11    -0.138929398760E+04    0.99937E-03   -0.69308E-04 13696   0.150E-01    0.203E-01
DAV:  12    -0.138929443832E+04   -0.45071E-03   -0.59774E-04 14616   0.133E-01    0.400E-01
DAV:  13    -0.138929397075E+04    0.46757E-03   -0.55115E-04 14192   0.130E-01    0.170E-01
DAV:  14    -0.138929393940E+04    0.31344E-04   -0.22232E-04 14800   0.766E-02    0.141E-01
DAV:  15    -0.138929396198E+04   -0.22574E-04   -0.13173E-04 14504   0.587E-02    0.160E-01
DAV:  16    -0.138929387918E+04    0.82796E-04   -0.78744E-05 14152   0.472E-02    0.407E-02
DAV:  17    -0.138929389177E+04   -0.12586E-04   -0.31011E-05 15440   0.265E-02    0.722E-02
DAV:  18    -0.138929387835E+04    0.13422E-04   -0.23067E-05 14416   0.237E-02    0.422E-02
DAV:  19    -0.138929387443E+04    0.39158E-05   -0.95400E-06 13968   0.149E-02    0.258E-02
DAV:  20    -0.138929387766E+04   -0.32303E-05   -0.66216E-06 14496   0.122E-02    0.376E-02
DAV:  21    -0.138929387273E+04    0.49316E-05   -0.50653E-06 13840   0.116E-02    0.795E-03
DAV:  22    -0.138929387324E+04   -0.51241E-06   -0.18799E-06 17778   0.434E-03    0.146E-02
DAV:  23    -0.138929387274E+04    0.50040E-06   -0.72010E-07 12242   0.397E-03    0.546E-03
DAV:  24    -0.138929387269E+04    0.55661E-07   -0.25538E-07  7106   0.221E-03
   8 F= -.15029276E+04 E0= -.15021531E+04  d E =-.249155E-01
       N       E                     dE             d eps       ncg     rms          rms(c)
DAV:   1    -0.138926477530E+04    0.29097E-01   -0.41909E+01 12312   0.669E+00    0.128E+00
DAV:   2    -0.139089023330E+04   -0.16255E+01   -0.80286E-01 13440   0.463E+00    0.234E+01
DAV:   3    -0.138949260789E+04    0.13976E+01   -0.57558E-01 13640   0.445E+00    0.828E+00
DAV:   4    -0.138931621507E+04    0.17639E+00   -0.15972E-01 13912   0.168E+00    0.205E+00
DAV:   5    -0.138935047354E+04   -0.34258E-01   -0.86000E-02 15016   0.120E+00    0.397E+00
DAV:   6    -0.138936102092E+04   -0.10547E-01   -0.59284E-02 13928   0.127E+00    0.435E+00
DAV:   7    -0.138931769615E+04    0.43325E-01   -0.43564E-02 13824   0.113E+00    0.169E+00
DAV:   8    -0.138931517091E+04    0.25252E-02   -0.20405E-02 14120   0.723E-01    0.138E+00
DAV:   9    -0.138931589158E+04   -0.72067E-03   -0.10757E-02 14008   0.560E-01    0.147E+00
DAV:  10    -0.138931047318E+04    0.54184E-02   -0.57741E-03 13760   0.422E-01    0.906E-01
DAV:  11    -0.138930855405E+04    0.19191E-02   -0.15764E-03 13744   0.215E-01    0.342E-01
DAV:  12    -0.138930955371E+04   -0.99966E-03   -0.13492E-03 14208   0.202E-01    0.613E-01
DAV:  13    -0.138930850377E+04    0.10499E-02   -0.13148E-03 13936   0.199E-01    0.277E-01
DAV:  14    -0.138930844949E+04    0.54281E-04   -0.56650E-04 14512   0.124E-01    0.243E-01
DAV:  15    -0.138930852744E+04   -0.77956E-04   -0.37647E-04 14296   0.101E-01    0.281E-01
DAV:  16    -0.138930827066E+04    0.25678E-03   -0.23462E-04 13984   0.809E-02    0.630E-02
DAV:  17    -0.138930830539E+04   -0.34725E-04   -0.83564E-05 15320   0.434E-02    0.117E-01
DAV:  18    -0.138930826700E+04    0.38384E-04   -0.60442E-05 14136   0.387E-02    0.636E-02
DAV:  19    -0.138930825879E+04    0.82174E-05   -0.24869E-05 13872   0.235E-02    0.417E-02
DAV:  20    -0.138930826757E+04   -0.87799E-05   -0.17982E-05 14328   0.199E-02    0.615E-02
DAV:  21    -0.138930825475E+04    0.12815E-04   -0.13840E-05 13648   0.190E-02    0.146E-02
DAV:  22    -0.138930825584E+04   -0.10935E-05   -0.50635E-06 19408   0.732E-03    0.234E-02
DAV:  23    -0.138930825467E+04    0.11793E-05   -0.19664E-06 14512   0.666E-03    0.115E-02
DAV:  24    -0.138930825429E+04    0.37444E-06   -0.85667E-07 12474   0.429E-03    0.631E-03
DAV:  25    -0.138930825459E+04   -0.29571E-06   -0.49488E-07 11224   0.337E-03    0.119E-02
DAV:  26    -0.138930825415E+04    0.44068E-06   -0.43583E-07 10698   0.332E-03    0.301E-03
DAV:  27    -0.138930825420E+04   -0.49309E-07   -0.10247E-07  6322   0.162E-03
   9 F= -.15029436E+04 E0= -.15021689E+04  d E =-.409052E-01
       N       E                     dE             d eps       ncg     rms          rms(c)
DAV:   1    -0.138930756683E+04    0.68732E-03   -0.17322E+01 12312   0.434E+00    0.884E-01
DAV:   2    -0.139081365488E+04   -0.15061E+01   -0.49050E-01 13512   0.410E+00    0.245E+01
DAV:   3    -0.138941207058E+04    0.14016E+01   -0.43326E-01 13544   0.385E+00    0.532E+00
DAV:   4    -0.138932563639E+04    0.86434E-01   -0.70093E-02 16064   0.114E+00    0.133E+00
DAV:   5    -0.138937265560E+04   -0.47019E-01   -0.44730E-02 15608   0.105E+00    0.422E+00
DAV:   6    -0.138933708334E+04    0.35572E-01   -0.36723E-02 13816   0.104E+00    0.227E+00
DAV:   7    -0.138932313068E+04    0.13953E-01   -0.12093E-02 13952   0.558E-01    0.531E-01
DAV:   8    -0.138932480694E+04   -0.16763E-02   -0.56021E-03 14144   0.337E-01    0.877E-01
DAV:   9    -0.138932286667E+04    0.19403E-02   -0.39963E-03 13696   0.288E-01    0.438E-01
DAV:  10    -0.138932240887E+04    0.45780E-03   -0.10836E-03 13584   0.147E-01    0.263E-01
DAV:  11    -0.138932276213E+04   -0.35326E-03   -0.49261E-04 14160   0.108E-01    0.442E-01
DAV:  12    -0.138932251106E+04    0.25107E-03   -0.45605E-04 13752   0.113E-01    0.266E-01
DAV:  13    -0.138932230950E+04    0.20156E-03   -0.25688E-04 13696   0.851E-02    0.105E-01
DAV:  14    -0.138932246139E+04   -0.15189E-03   -0.18339E-04 15258   0.697E-02    0.223E-01
DAV:  15    -0.138932230028E+04    0.16111E-03   -0.14874E-04 14482   0.683E-02    0.710E-02
DAV:  16    -0.138932229744E+04    0.28336E-05   -0.49080E-05 17552   0.309E-02    0.668E-02
DAV:  17    -0.138932229254E+04    0.49064E-05   -0.24521E-05 15040   0.249E-02    0.547E-02
DAV:  18    -0.138932228392E+04    0.86194E-05   -0.13057E-05 14240   0.189E-02    0.255E-02
DAV:  19    -0.138932228779E+04   -0.38709E-05   -0.82774E-06 15376   0.153E-02    0.396E-02
DAV:  20    -0.138932228337E+04    0.44199E-05   -0.60123E-06 14384   0.132E-02    0.194E-02
DAV:  21    -0.138932228208E+04    0.12890E-05   -0.20175E-06 14000   0.693E-03    0.790E-03
DAV:  22    -0.138932228268E+04   -0.59690E-06   -0.11091E-06 14256   0.466E-03    0.146E-02
DAV:  23    -0.138932228211E+04    0.56990E-06   -0.78859E-07 12176   0.445E-03    0.542E-03
DAV:  24    -0.138932228213E+04   -0.22745E-07   -0.22407E-07  6855   0.222E-03
  10 F= -.15029582E+04 E0= -.15021830E+04  d E =-.145334E-01
       N       E                     dE             d eps       ncg     rms          rms(c)
DAV:   1    -0.138930874370E+04    0.13538E-01   -0.20422E+01 12312   0.471E+00    0.960E-01
DAV:   2    -0.139106587036E+04   -0.17571E+01   -0.54541E-01 13496   0.444E+00    0.263E+01
DAV:   3    -0.138943404944E+04    0.16318E+01   -0.50237E-01 13488   0.417E+00    0.586E+00
DAV:   4    -0.138932989364E+04    0.10416E+00   -0.82232E-02 15880   0.125E+00    0.141E+00
DAV:   5    -0.138938397650E+04   -0.54083E-01   -0.52865E-02 15312   0.113E+00    0.452E+00
DAV:   6    -0.138934400187E+04    0.39975E-01   -0.43287E-02 13776   0.112E+00    0.250E+00
DAV:   7    -0.138932719666E+04    0.16805E-01   -0.14410E-02 13792   0.612E-01    0.583E-01
DAV:   8    -0.138932920627E+04   -0.20096E-02   -0.65450E-03 14048   0.369E-01    0.965E-01
DAV:   9    -0.138932687622E+04    0.23301E-02   -0.47575E-03 13752   0.313E-01    0.480E-01
DAV:  10    -0.138932630148E+04    0.57474E-03   -0.12875E-03 13664   0.158E-01    0.273E-01
DAV:  11    -0.138932670108E+04   -0.39960E-03   -0.58287E-04 14144   0.114E-01    0.469E-01
DAV:  12    -0.138932648310E+04    0.21798E-03   -0.52354E-04 13816   0.125E-01    0.311E-01
DAV:  13    -0.138932621798E+04    0.26512E-03   -0.35685E-04 13792   0.104E-01    0.133E-01
DAV:  14    -0.138932634593E+04   -0.12795E-03   -0.22814E-04 15504   0.807E-02    0.215E-01
DAV:  15    -0.138932622463E+04    0.12130E-03   -0.17817E-04 14666   0.748E-02    0.127E-01
DAV:  16    -0.138932617618E+04    0.48453E-04   -0.56620E-05 14576   0.401E-02    0.528E-02
DAV:  17    -0.138932619994E+04   -0.23757E-04   -0.41405E-05 15240   0.318E-02    0.938E-02
DAV:  18    -0.138932617218E+04    0.27760E-04   -0.33753E-05 14210   0.303E-02    0.361E-02
DAV:  19    -0.138932617168E+04    0.49572E-06   -0.11703E-05 15154   0.162E-02    0.358E-02
DAV:  20    -0.138932616980E+04    0.18790E-05   -0.73066E-06 14058   0.123E-02    0.244E-02
DAV:  21    -0.138932616795E+04    0.18565E-05   -0.36924E-06 13506   0.901E-03    0.939E-03
DAV:  22    -0.138932616873E+04   -0.78430E-06   -0.16637E-06 14832   0.558E-03    0.169E-02
DAV:  23    -0.138932616793E+04    0.80249E-06   -0.11458E-06 12786   0.516E-03    0.569E-03
DAV:  24    -0.138932616801E+04   -0.81389E-07   -0.35886E-07  8232   0.256E-03
  11 F= -.15029629E+04 E0= -.15021873E+04  d E =-.192704E-01
       N       E                     dE             d eps       ncg     rms          rms(c)
DAV:   1    -0.138932454917E+04    0.16188E-02   -0.74177E+00 12320   0.285E+00    0.566E-01
DAV:   2    -0.139006009409E+04   -0.73554E+00   -0.21451E-01 13440   0.267E+00    0.188E+01
DAV:   3    -0.138934639778E+04    0.71370E+00   -0.23847E-01 13480   0.255E+00    0.148E+00
DAV:   4    -0.138934064998E+04    0.57478E-02   -0.28688E-02 17736   0.687E-01    0.210E+00
DAV:   5    -0.138935243990E+04   -0.11790E-01   -0.20474E-02 15112   0.744E-01    0.264E+00
DAV:   6    -0.138933385967E+04    0.18580E-01   -0.15870E-02 13904   0.697E-01    0.104E+00
DAV:   7    -0.138933108579E+04    0.27739E-02   -0.37462E-03 13960   0.301E-01    0.532E-01
DAV:   8    -0.138933154467E+04   -0.45887E-03   -0.23078E-03 13968   0.231E-01    0.600E-01
DAV:   9    -0.138933078902E+04    0.75565E-03   -0.17663E-03 13752   0.190E-01    0.327E-01
DAV:  10    -0.138933044498E+04    0.34405E-03   -0.53914E-04 13682   0.103E-01    0.131E-01
DAV:  11    -0.138933046833E+04   -0.23352E-04   -0.17363E-04 14344   0.558E-02    0.172E-01
DAV:  12    -0.138933057259E+04   -0.10426E-03   -0.14367E-04 14224   0.667E-02    0.236E-01
DAV:  13    -0.138933043075E+04    0.14184E-03   -0.14710E-04 13904   0.683E-02    0.763E-02
DAV:  14    -0.138933043950E+04   -0.87444E-05   -0.61597E-05 15256   0.395E-02    0.934E-02
DAV:  15    -0.138933044299E+04   -0.34905E-05   -0.47149E-05 14728   0.357E-02    0.939E-02
DAV:  16    -0.138933041517E+04    0.27819E-04   -0.28178E-05 14408   0.286E-02    0.334E-02
DAV:  17    -0.138933042066E+04   -0.54958E-05   -0.11063E-05 16976   0.157E-02    0.528E-02
DAV:  18    -0.138933041277E+04    0.78914E-05   -0.74889E-06 14928   0.146E-02    0.209E-02
DAV:  19    -0.138933041298E+04   -0.21333E-06   -0.33000E-06 15520   0.896E-03    0.226E-02
DAV:  20    -0.138933041291E+04    0.77722E-07   -0.27740E-06 14576   0.814E-03    0.198E-02
DAV:  21    -0.138933041161E+04    0.12981E-05   -0.17074E-06 13882   0.649E-03    0.570E-03
DAV:  22    -0.138933041181E+04   -0.20376E-06   -0.55190E-07 11058   0.313E-03    0.980E-03
DAV:  23    -0.138933041155E+04    0.25819E-06   -0.42989E-07  9714   0.292E-03    0.410E-03
DAV:  24    -0.138933041153E+04    0.26346E-07   -0.11268E-07  6319   0.146E-03
  12 F= -.15029678E+04 E0= -.15021921E+04  d E =-.487540E-02
       N       E                     dE             d eps       ncg     rms          rms(c)
DAV:   1    -0.138931975538E+04    0.10656E-01   -0.13893E+01 12312   0.390E+00    0.775E-01
DAV:   2    -0.139069861395E+04   -0.13789E+01   -0.38974E-01 13448   0.365E+00    0.256E+01
DAV:   3    -0.138935990600E+04    0.13387E+01   -0.42376E-01 13488   0.346E+00    0.212E+00
DAV:   4    -0.138934812943E+04    0.11777E-01   -0.54054E-02 17712   0.919E-01    0.277E+00
DAV:   5    -0.138937005157E+04   -0.21922E-01   -0.36432E-02 15112   0.101E+00    0.345E+00
DAV:   6    -0.138933674925E+04    0.33302E-01   -0.29127E-02 13872   0.953E-01    0.137E+00
DAV:   7    -0.138933202493E+04    0.47243E-02   -0.68680E-03 13864   0.403E-01    0.710E-01
DAV:   8    -0.138933296533E+04   -0.94041E-03   -0.40835E-03 13824   0.308E-01    0.827E-01
DAV:   9    -0.138933155163E+04    0.14137E-02   -0.31247E-03 13672   0.257E-01    0.454E-01
DAV:  10    -0.138933090903E+04    0.64259E-03   -0.99261E-04 13554   0.141E-01    0.190E-01
DAV:  11    -0.138933093733E+04   -0.28300E-04   -0.31382E-04 14272   0.753E-02    0.232E-01
DAV:  12    -0.138933110814E+04   -0.17081E-03   -0.27851E-04 14280   0.904E-02    0.302E-01
DAV:  13    -0.138933086576E+04    0.24238E-03   -0.28187E-04 13930   0.918E-02    0.981E-02
DAV:  14    -0.138933089118E+04   -0.25419E-04   -0.11518E-04 15432   0.531E-02    0.133E-01
DAV:  15    -0.138933088637E+04    0.48159E-05   -0.88749E-05 14760   0.482E-02    0.119E-01
DAV:  16    -0.138933084139E+04    0.44980E-04   -0.48243E-05 14496   0.369E-02    0.435E-02
DAV:  17    -0.138933085135E+04   -0.99617E-05   -0.19722E-05 16504   0.213E-02    0.701E-02
DAV:  18    -0.138933083707E+04    0.14274E-04   -0.13845E-05 14808   0.196E-02    0.263E-02
DAV:  19    -0.138933083814E+04   -0.10614E-05   -0.63113E-06 15904   0.122E-02    0.317E-02
DAV:  20    -0.138933083747E+04    0.66808E-06   -0.51873E-06 14736   0.112E-02    0.256E-02
DAV:  21    -0.138933083528E+04    0.21863E-05   -0.28906E-06 14082   0.847E-03    0.753E-03
DAV:  22    -0.138933083566E+04   -0.38271E-06   -0.10811E-06 14160   0.417E-03    0.131E-02
DAV:  23    -0.138933083518E+04    0.48438E-06   -0.70889E-07 11906   0.385E-03    0.496E-03
DAV:  24    -0.138933083516E+04    0.19754E-07   -0.17516E-07  6522   0.183E-03
  13 F= -.15029693E+04 E0= -.15021935E+04  d E =-.635971E-02
       N       E                     dE             d eps       ncg     rms          rms(c)
DAV:   1    -0.138932846427E+04    0.23709E-02   -0.38924E+00 12320   0.206E+00    0.420E-01
DAV:   2    -0.138972995455E+04   -0.40149E+00   -0.13245E-01 13488   0.196E+00    0.141E+01
DAV:   3    -0.138934135124E+04    0.38860E+00   -0.10430E-01 13456   0.187E+00    0.133E+00
DAV:   4    -0.138933635194E+04    0.49993E-02   -0.17118E-02 17472   0.507E-01    0.139E+00
DAV:   5    -0.138934380313E+04   -0.74512E-02   -0.92723E-03 15136   0.545E-01    0.198E+00
DAV:   6    -0.138933594342E+04    0.78597E-02   -0.84797E-03 13864   0.534E-01    0.120E+00
DAV:   7    -0.138933240792E+04    0.35355E-02   -0.24935E-03 13856   0.295E-01    0.450E-01
DAV:   8    -0.138933213298E+04    0.27494E-03   -0.11797E-03 14280   0.169E-01    0.333E-01
DAV:   9    -0.138933238448E+04   -0.25151E-03   -0.84846E-04 13816   0.147E-01    0.424E-01
DAV:  10    -0.138933198277E+04    0.40171E-03   -0.50252E-04 13488   0.120E-01    0.264E-01
DAV:  11    -0.138933181532E+04    0.16745E-03   -0.15561E-04 13648   0.626E-02    0.958E-02
DAV:  12    -0.138933184579E+04   -0.30468E-04   -0.93505E-05 13888   0.466E-02    0.133E-01
DAV:  13    -0.138933180823E+04    0.37561E-04   -0.80365E-05 13864   0.450E-02    0.745E-02
DAV:  14    -0.138933179581E+04    0.12420E-04   -0.39726E-05 13442   0.316E-02    0.455E-02
DAV:  15    -0.138933181410E+04   -0.18290E-04   -0.27409E-05 13880   0.258E-02    0.830E-02
DAV:  16    -0.138933179246E+04    0.21632E-04   -0.24081E-05 13728   0.250E-02    0.245E-02
DAV:  17    -0.138933179568E+04   -0.32197E-05   -0.96188E-06 17352   0.131E-02    0.388E-02
DAV:  18    -0.138933179122E+04    0.44611E-05   -0.48400E-06 14552   0.112E-02    0.150E-02
DAV:  19    -0.138933179155E+04   -0.32383E-06   -0.20988E-06 15688   0.692E-03    0.178E-02
DAV:  20    -0.138933179182E+04   -0.27323E-06   -0.18195E-06 14696   0.678E-03    0.179E-02
DAV:  21    -0.138933179069E+04    0.11308E-05   -0.12217E-06 13386   0.588E-03    0.388E-03
DAV:  22    -0.138933179086E+04   -0.17571E-06   -0.31850E-07  7794   0.262E-03    0.868E-03
DAV:  23    -0.138933179065E+04    0.21877E-06   -0.25699E-07  7386   0.244E-03    0.290E-03
DAV:  24    -0.138933179063E+04    0.13104E-07   -0.76043E-08  6303   0.109E-03
  14 F= -.15029706E+04 E0= -.15021948E+04  d E =-.135786E-02
       N       E                     dE             d eps       ncg     rms          rms(c)
DAV:   1    -0.138933154296E+04    0.24769E-03   -0.20925E-01 12328   0.478E-01    0.973E-02
DAV:   2    -0.138935259149E+04   -0.21049E-01   -0.94229E-03 13520   0.453E-01    0.317E+00
DAV:   3    -0.138933235796E+04    0.20234E-01   -0.75659E-03 13480   0.439E-01    0.345E-01
DAV:   4    -0.138933190865E+04    0.44931E-03   -0.89708E-04 17352   0.115E-01    0.283E-01
DAV:   5    -0.138933233382E+04   -0.42517E-03   -0.50256E-04 15376   0.124E-01    0.443E-01
DAV:   6    -0.138933192369E+04    0.41013E-03   -0.41477E-04 13880   0.122E-01    0.262E-01
DAV:   7    -0.138933175285E+04    0.17084E-03   -0.12076E-04 13832   0.661E-02    0.102E-01
DAV:   8    -0.138933173843E+04    0.14420E-04   -0.60532E-05 14336   0.380E-02    0.739E-02
DAV:   9    -0.138933175071E+04   -0.12283E-04   -0.42480E-05 13912   0.329E-02    0.929E-02
DAV:  10    -0.138933173128E+04    0.19431E-04   -0.25369E-05 13576   0.272E-02    0.595E-02
DAV:  11    -0.138933172301E+04    0.82689E-05   -0.77429E-06 13712   0.140E-02    0.221E-02
DAV:  12    -0.138933172464E+04   -0.16335E-05   -0.47707E-06 13992   0.107E-02    0.305E-02
DAV:  13    -0.138933172269E+04    0.19534E-05   -0.41421E-06 13960   0.103E-02    0.168E-02
DAV:  14    -0.138933172203E+04    0.65965E-06   -0.19658E-06 13410   0.706E-03    0.994E-03
DAV:  15    -0.138933172271E+04   -0.68108E-06   -0.11915E-06 13632   0.536E-03    0.169E-02
DAV:  16    -0.138933172183E+04    0.88385E-06   -0.10045E-06 12872   0.525E-03    0.550E-03
DAV:  17    -0.138933172201E+04   -0.18492E-06   -0.32797E-07  7554   0.291E-03    0.900E-03
DAV:  18    -0.138933172180E+04    0.21212E-06   -0.25981E-07  7266   0.262E-03    0.356E-03
DAV:  19    -0.138933172181E+04   -0.99026E-08   -0.10067E-07  6351   0.163E-03
  15 F= -.15029707E+04 E0= -.15021948E+04  d E =-.139168E-02
       N       E                     dE             d eps       ncg     rms          rms(c)
DAV:   1    -0.138933084651E+04    0.87529E-03   -0.11166E+00 12328   0.110E+00    0.207E-01
DAV:   2    -0.138938493531E+04   -0.54089E-01   -0.27455E-02 13504   0.763E-01    0.503E+00
DAV:   3    -0.138933623341E+04    0.48702E-01   -0.27027E-02 13488   0.743E-01    0.123E+00
DAV:   4    -0.138933225554E+04    0.39779E-02   -0.40183E-03 14744   0.261E-01    0.391E-01
DAV:   5    -0.138933332332E+04   -0.10678E-02   -0.20511E-03 14816   0.211E-01    0.682E-01
DAV:   6    -0.138933225245E+04    0.10709E-02   -0.15339E-03 13912   0.196E-01    0.295E-01
DAV:   7    -0.138933214578E+04    0.10667E-03   -0.46930E-04 13648   0.115E-01    0.293E-01
DAV:   8    -0.138933205282E+04    0.92961E-04   -0.28483E-04 13920   0.868E-02    0.175E-01
DAV:   9    -0.138933209018E+04   -0.37368E-04   -0.18046E-04 13744   0.699E-02    0.214E-01
DAV:  10    -0.138933197847E+04    0.11171E-03   -0.11216E-04 13704   0.553E-02    0.985E-02
DAV:  11    -0.138933195623E+04    0.22236E-04   -0.31389E-05 13896   0.280E-02    0.532E-02
DAV:  12    -0.138933198178E+04   -0.25549E-04   -0.28798E-05 14048   0.304E-02    0.977E-02
DAV:  13    -0.138933195250E+04    0.29282E-04   -0.28409E-05 13920   0.302E-02    0.314E-02
DAV:  14    -0.138933195656E+04   -0.40573E-05   -0.13037E-05 16744   0.169E-02    0.465E-02
DAV:  15    -0.138933195171E+04    0.48457E-05   -0.74642E-06 15272   0.140E-02    0.244E-02
DAV:  16    -0.138933195006E+04    0.16505E-05   -0.27839E-06 14584   0.837E-03    0.134E-02
DAV:  17    -0.138933195132E+04   -0.12547E-05   -0.17613E-06 15232   0.691E-03    0.230E-02
DAV:  18    -0.138933194958E+04    0.17344E-05   -0.13676E-06 14208   0.663E-03    0.559E-03
DAV:  19    -0.138933194984E+04   -0.25347E-06   -0.44037E-07  9786   0.334E-03    0.105E-02
DAV:  20    -0.138933194957E+04    0.26502E-06   -0.41379E-07  9546   0.325E-03    0.628E-03
DAV:  21    -0.138933194945E+04    0.11606E-06   -0.14699E-07  6343   0.186E-03    0.238E-03
DAV:  22    -0.138933194949E+04   -0.35106E-07   -0.72571E-08  6303   0.114E-03
  16 F= -.15029711E+04 E0= -.15021953E+04  d E =-.425979E-03
       N       E                     dE             d eps       ncg     rms          rms(c)
DAV:   1    -0.138933182010E+04    0.12936E-03   -0.11781E-01 12336   0.359E-01    0.676E-02
DAV:   2    -0.138933752527E+04   -0.57052E-02   -0.30382E-03 13488   0.250E-01    0.161E+00
DAV:   3    -0.138933241041E+04    0.51149E-02   -0.29506E-03 13488   0.244E-01    0.406E-01
DAV:   4    -0.138933196795E+04    0.44246E-03   -0.43907E-04 14640   0.855E-02    0.125E-01
DAV:   5    -0.138933207643E+04   -0.10848E-03   -0.20550E-04 14560   0.681E-02    0.219E-01
DAV:   6    -0.138933196660E+04    0.10983E-03   -0.15783E-04 13784   0.628E-02    0.936E-02
DAV:   7    -0.138933195682E+04    0.97773E-05   -0.49905E-05 13528   0.371E-02    0.948E-02
DAV:   8    -0.138933194786E+04    0.89574E-05   -0.30311E-05 13808   0.282E-02    0.586E-02
DAV:   9    -0.138933195166E+04   -0.37958E-05   -0.19394E-05 13616   0.230E-02    0.708E-02
DAV:  10    -0.138933193969E+04    0.11965E-04   -0.11585E-05 13648   0.181E-02    0.333E-02
DAV:  11    -0.138933193711E+04    0.25842E-05   -0.34595E-06 13800   0.934E-03    0.171E-02
DAV:  12    -0.138933193982E+04   -0.27134E-05   -0.30974E-06 13896   0.991E-03    0.317E-02
DAV:  13    -0.138933193666E+04    0.31559E-05   -0.30209E-06 13768   0.992E-03    0.100E-02
DAV:  14    -0.138933193714E+04   -0.47891E-06   -0.13266E-06 15456   0.556E-03    0.155E-02
DAV:  15    -0.138933193671E+04    0.43360E-06   -0.87554E-07 13472   0.482E-03    0.931E-03
DAV:  16    -0.138933193644E+04    0.26799E-06   -0.34020E-07  7786   0.306E-03    0.420E-03
DAV:  17    -0.138933193658E+04   -0.13396E-06   -0.16754E-07  6386   0.231E-03    0.753E-03
DAV:  18    -0.138933193639E+04    0.18646E-06   -0.14290E-07  6359   0.221E-03    0.235E-03
DAV:  19    -0.138933193639E+04    0.35798E-08   -0.43630E-08  6303   0.995E-04
  17 F= -.15029711E+04 E0= -.15021953E+04  d E =-.480470E-03
       N       E                     dE             d eps       ncg     rms          rms(c)
DAV:   1    -0.138933171209E+04    0.22430E-03   -0.37071E-01 12320   0.638E-01    0.108E-01
DAV:   2    -0.138934532093E+04   -0.13609E-01   -0.76696E-03 13448   0.392E-01    0.248E+00
DAV:   3    -0.138933316400E+04    0.12157E-01   -0.57406E-03 13384   0.384E-01    0.619E-01
DAV:   4    -0.138933215569E+04    0.10083E-02   -0.10764E-03 14160   0.134E-01    0.206E-01
DAV:   5    -0.138933248610E+04   -0.33041E-03   -0.59473E-04 14832   0.114E-01    0.374E-01
DAV:   6    -0.138933243021E+04    0.55883E-04   -0.52908E-04 13904   0.118E-01    0.350E-01
DAV:   7    -0.138933211471E+04    0.31551E-03   -0.24477E-04 13736   0.857E-02    0.101E-01
DAV:   8    -0.138933211477E+04   -0.67412E-07   -0.99521E-05 14032   0.509E-02    0.105E-01
DAV:   9    -0.138933213116E+04   -0.16385E-04   -0.68148E-05 13920   0.428E-02    0.131E-01
DAV:  10    -0.138933209505E+04    0.36104E-04   -0.36294E-05 13696   0.332E-02    0.725E-02
DAV:  11    -0.138933208085E+04    0.14204E-04   -0.12958E-05 13704   0.186E-02    0.259E-02
DAV:  12    -0.138933208599E+04   -0.51367E-05   -0.93494E-06 14504   0.158E-02    0.454E-02
DAV:  13    -0.138933208109E+04    0.48930E-05   -0.81374E-06 13952   0.152E-02    0.237E-02
DAV:  14    -0.138933207981E+04    0.12882E-05   -0.33784E-06 13840   0.959E-03    0.138E-02
DAV:  15    -0.138933208060E+04   -0.79540E-06   -0.19663E-06 13832   0.676E-03    0.211E-02
DAV:  16    -0.138933207924E+04    0.13582E-05   -0.14943E-06 13504   0.653E-03    0.636E-03
DAV:  17    -0.138933207966E+04   -0.41852E-06   -0.59927E-07 11570   0.393E-03    0.123E-02
DAV:  18    -0.138933207925E+04    0.41252E-06   -0.49428E-07 10698   0.371E-03    0.501E-03
DAV:  19    -0.138933207924E+04    0.38272E-08   -0.15964E-07  6399   0.205E-03
  18 F= -.15029713E+04 E0= -.15021954E+04  d E =-.129839E-03
       N       E                     dE             d eps       ncg     rms          rms(c)
DAV:   1    -0.138933207982E+04   -0.57151E-06   -0.89701E-05 12386   0.101E-02    0.558E-03
DAV:   2    -0.138933209744E+04   -0.17622E-04   -0.91163E-06 13872   0.189E-02    0.746E-02
DAV:   3    -0.138933208486E+04    0.12579E-04   -0.82646E-06 13784   0.174E-02    0.442E-02
DAV:   4    -0.138933208050E+04    0.43679E-05   -0.23770E-06 13640   0.822E-03    0.158E-02
DAV:   5    -0.138933207988E+04    0.61879E-06   -0.49964E-07 10552   0.358E-03    0.571E-03
DAV:   6    -0.138933208002E+04   -0.14205E-06   -0.29843E-07  8167   0.284E-03    0.855E-03
DAV:   7    -0.138933208006E+04   -0.38330E-07   -0.26943E-07  6866   0.277E-03
  19 F= -.15029713E+04 E0= -.15021954E+04  d E =-.130822E-03
       N       E                     dE             d eps       ncg     rms          rms(c)
DAV:   1    -0.138933200762E+04    0.72403E-04   -0.75694E-02 12331   0.287E-01    0.395E-02
DAV:   2    -0.138933288518E+04   -0.87757E-03   -0.10455E-03 13384   0.122E-01    0.573E-01
DAV:   3    -0.138933226852E+04    0.61666E-03   -0.66918E-04 13384   0.115E-01    0.266E-01
DAV:   4    -0.138933209191E+04    0.17661E-03   -0.17796E-04 13392   0.598E-02    0.584E-02
DAV:   5    -0.138933215308E+04   -0.61167E-04   -0.80252E-05 16384   0.396E-02    0.164E-01
DAV:   6    -0.138933212289E+04    0.30184E-04   -0.58654E-05 14816   0.422E-02    0.100E-01
DAV:   7    -0.138933208980E+04    0.33090E-04   -0.29924E-05 14320   0.308E-02    0.305E-02
DAV:   8    -0.138933209042E+04   -0.61780E-06   -0.95900E-06 14816   0.135E-02    0.389E-02
DAV:   9    -0.138933209183E+04   -0.14043E-05   -0.74546E-06 14304   0.137E-02    0.374E-02
DAV:  10    -0.138933208781E+04    0.40171E-05   -0.56128E-06 13976   0.123E-02    0.177E-02
DAV:  11    -0.138933208705E+04    0.75727E-06   -0.15877E-06 14032   0.591E-03    0.114E-02
DAV:  12    -0.138933208733E+04   -0.28047E-06   -0.76091E-07 13160   0.434E-03    0.149E-02
DAV:  13    -0.138933208761E+04   -0.27366E-06   -0.89733E-07 13472   0.522E-03    0.155E-02
DAV:  14    -0.138933208682E+04    0.78095E-06   -0.64171E-07 12282   0.458E-03    0.377E-03
DAV:  15    -0.138933208698E+04   -0.15881E-06   -0.19382E-07  6682   0.237E-03    0.769E-03
DAV:  16    -0.138933208684E+04    0.13944E-06   -0.16892E-07  6666   0.228E-03    0.333E-03
DAV:  17    -0.138933208681E+04    0.31338E-07   -0.70682E-08  6279   0.133E-03
  20 F= -.15029713E+04 E0= -.15021954E+04  d E =0.940391E-05
       N       E                     dE             d eps       ncg     rms          rms(c)
DAV:   1    -0.138933203845E+04    0.48394E-04   -0.33613E-03 12345   0.604E-02    0.853E-03
DAV:   2    -0.138933207888E+04   -0.40428E-04   -0.46072E-05 13384   0.264E-02    0.122E-01
DAV:   3    -0.138933205105E+04    0.27833E-04   -0.29098E-05 13384   0.249E-02    0.597E-02
DAV:   4    -0.138933204219E+04    0.88513E-05   -0.80865E-06 13376   0.132E-02    0.118E-02
DAV:   5    -0.138933204500E+04   -0.28027E-05   -0.37570E-06 16096   0.858E-03    0.349E-02
DAV:   6    -0.138933204408E+04    0.91522E-06   -0.27272E-06 14552   0.917E-03    0.250E-02
DAV:   7    -0.138933204208E+04    0.20022E-05   -0.15577E-06 14168   0.708E-03    0.508E-03
DAV:   8    -0.138933204217E+04   -0.91750E-07   -0.39899E-07  8626   0.280E-03
  21 F= -.15029712E+04 E0= -.15021954E+04  d E =0.573470E-04
       N       E                     dE             d eps       ncg     rms          rms(c)
DAV:   1    -0.138933204465E+04   -0.25668E-05   -0.18535E-02 12342   0.142E-01    0.235E-02
DAV:   2    -0.138933250912E+04   -0.46448E-03   -0.30325E-04 13480   0.808E-02    0.430E-01
DAV:   3    -0.138933210163E+04    0.40749E-03   -0.23676E-04 13472   0.794E-02    0.117E-01
DAV:   4    -0.138933206954E+04    0.32088E-04   -0.44049E-05 13472   0.263E-02    0.604E-02
DAV:   5    -0.138933206804E+04    0.15034E-05   -0.24661E-05 13704   0.208E-02    0.475E-02
DAV:   6    -0.138933208041E+04   -0.12374E-04   -0.20903E-05 13664   0.219E-02    0.795E-02
DAV:   7    -0.138933206589E+04    0.14526E-04   -0.13238E-05 13624   0.198E-02    0.329E-02
DAV:   8    -0.138933206286E+04    0.30275E-05   -0.40293E-06 13544   0.110E-02    0.143E-02
DAV:   9    -0.138933206366E+04   -0.80019E-06   -0.23265E-06 13656   0.772E-03    0.203E-02
DAV:  10    -0.138933206320E+04    0.46207E-06   -0.15989E-06 13536   0.672E-03    0.185E-02
DAV:  11    -0.138933206243E+04    0.76179E-06   -0.62952E-07 12632   0.426E-03    0.740E-03
DAV:  12    -0.138933206235E+04    0.81163E-07   -0.24992E-07  6983   0.252E-03
  22 F= -.15029712E+04 E0= -.15021954E+04  d E =-.271884E-04
       N       E                     dE             d eps       ncg     rms          rms(c)
DAV:   1    -0.138933206224E+04    0.19164E-06   -0.44889E-06 16808   0.349E-03    0.916E-03
DAV:   2    -0.138933211012E+04   -0.47872E-04   -0.29839E-05 18520   0.309E-02    0.119E-01
DAV:   3    -0.138933206629E+04    0.43825E-04   -0.19245E-05 15056   0.292E-02    0.400E-02
DAV:   4    -0.138933206242E+04    0.38724E-05   -0.51624E-06 16344   0.746E-03    0.148E-02
DAV:   5    -0.138933206208E+04    0.33774E-06   -0.23547E-06 14992   0.414E-03    0.859E-03
DAV:   6    -0.138933206217E+04   -0.91299E-07   -0.60032E-07 10626   0.326E-03
  23 F= -.15029712E+04 E0= -.15021954E+04  d E =-.271069E-04
       N       E                     dE             d eps       ncg     rms          rms(c)
DAV:   1    -0.138933204359E+04    0.18491E-04   -0.48966E-03 12350   0.730E-02    0.106E-02
DAV:   2    -0.138933209778E+04   -0.54192E-04   -0.61873E-05 13488   0.301E-02    0.142E-01
DAV:   3    -0.138933205951E+04    0.38275E-04   -0.42270E-05 13376   0.296E-02    0.653E-02
DAV:   4    -0.138933205023E+04    0.92787E-05   -0.11440E-05 13400   0.155E-02    0.277E-02
DAV:   5    -0.138933205075E+04   -0.52682E-06   -0.54524E-06 15632   0.105E-02    0.280E-02
DAV:   6    -0.138933205243E+04   -0.16804E-05   -0.41737E-06 14664   0.110E-02    0.337E-02
DAV:   7    -0.138933204998E+04    0.24570E-05   -0.27176E-06 13976   0.918E-03    0.220E-02
DAV:   8    -0.138933204877E+04    0.12108E-05   -0.11199E-06 13632   0.537E-03    0.734E-03
DAV:   9    -0.138933204881E+04   -0.48633E-07   -0.39509E-07  9738   0.338E-03
  24 F= -.15029712E+04 E0= -.15021954E+04  d E =-.409615E-05
       N       E                     dE             d eps       ncg     rms          rms(c)
DAV:   1    -0.138933204872E+04    0.48829E-07   -0.27284E-06 17880   0.382E-03    0.137E-02
DAV:   2    -0.138933225642E+04   -0.20771E-03   -0.55683E-05 17296   0.517E-02    0.290E-01
DAV:   3    -0.138933205836E+04    0.19806E-03   -0.43837E-05 14888   0.503E-02    0.345E-02
DAV:   4    -0.138933204909E+04    0.92758E-05   -0.75470E-06 15776   0.118E-02    0.170E-02
DAV:   5    -0.138933205013E+04   -0.10389E-05   -0.37741E-06 14896   0.711E-03    0.298E-02
DAV:   6    -0.138933205126E+04   -0.11307E-05   -0.25774E-06 13640   0.802E-03    0.345E-02
DAV:   7    -0.138933204929E+04    0.19660E-05   -0.19690E-06 13280   0.725E-03    0.181E-02
DAV:   8    -0.138933204832E+04    0.96643E-06   -0.67529E-07 11960   0.478E-03    0.486E-03
DAV:   9    -0.138933204829E+04    0.30181E-07   -0.17396E-07  6994   0.198E-03
  25 F= -.15029712E+04 E0= -.15021954E+04  d E =-.317166E-05
       N       E                     dE             d eps       ncg     rms          rms(c)
DAV:   1    -0.138933202438E+04    0.23943E-04   -0.20217E-03 12342   0.470E-02    0.757E-03
DAV:   2    -0.138933206548E+04   -0.41102E-04   -0.25204E-05 13360   0.251E-02    0.127E-01
DAV:   3    -0.138933203118E+04    0.34302E-04   -0.17832E-05 13280   0.244E-02    0.412E-02
DAV:   4    -0.138933202747E+04    0.37151E-05   -0.49847E-06 13400   0.932E-03    0.235E-02
DAV:   5    -0.138933202653E+04    0.93157E-06   -0.22947E-06 13960   0.677E-03    0.126E-02
DAV:   6    -0.138933202758E+04   -0.10458E-05   -0.17450E-06 13840   0.667E-03    0.213E-02
DAV:   7    -0.138933202735E+04    0.23454E-06   -0.15160E-06 13584   0.683E-03    0.199E-02
DAV:   8    -0.138933202629E+04    0.10594E-05   -0.73205E-07 13152   0.504E-03    0.512E-03
DAV:   9    -0.138933202627E+04    0.16131E-07   -0.20676E-07  6455   0.234E-03
  26 F= -.15029712E+04 E0= -.15021954E+04  d E =0.153952E-04
       N       E                     dE             d eps       ncg     rms          rms(c)
DAV:   1    -0.138933204430E+04   -0.18010E-04   -0.11317E-04 12351   0.113E-02    0.856E-03
DAV:   2    -0.138933211665E+04   -0.72356E-04   -0.21042E-05 14624   0.322E-02    0.167E-01
DAV:   3    -0.138933204902E+04    0.67630E-04   -0.19020E-05 14472   0.309E-02    0.281E-02
DAV:   4    -0.138933204522E+04    0.38001E-05   -0.19838E-06 13792   0.834E-03    0.200E-02
DAV:   5    -0.138933204447E+04    0.74981E-06   -0.89616E-07 12728   0.440E-03    0.108E-02
DAV:   6    -0.138933204498E+04   -0.51223E-06   -0.68944E-07 12688   0.467E-03    0.167E-02
DAV:   7    -0.138933204471E+04    0.27795E-06   -0.53816E-07 11696   0.446E-03    0.122E-02
DAV:   8    -0.138933204426E+04    0.44239E-06   -0.32513E-07  8346   0.335E-03    0.440E-03
DAV:   9    -0.138933204420E+04    0.60449E-07   -0.72049E-08  6440   0.131E-03
  27 F= -.15029712E+04 E0= -.15021954E+04  d E =-.952981E-06
