NiAl                                    
            1
    14.280000    0.000000    0.000000
     0.000000   14.280000    0.000000
     0.000000    0.000000   14.280000
   Ni   O 
   256     1
Direct configuration=     1
   0.00000000  0.00000000  0.00000000
   0.00000000  0.12500000  0.12500000
   0.12500000  0.00000000  0.12500000
   0.12500000  0.12500000  0.00000000
   0.00000000  0.00000000  0.25000000
   0.00000000  0.12500000  0.37500000
   0.12500000  0.00000000  0.37500000
   0.12500000  0.12500000  0.25000000
   0.00000000  0.00000000  0.50000000
   0.00000000  0.12500000  0.62500000
   0.12500000  0.00000000  0.62500000
   0.12500000  0.12500000  0.50000000
   0.00000000  0.00000000  0.75000000
   0.00000000  0.12500000  0.87500000
   0.12500000  0.00000000  0.87500000
   0.12500000  0.12500000  0.75000000
   0.00000000  0.25000000  0.00000000
   0.00000000  0.37500000  0.12500000
   0.12500000  0.25000000  0.12500000
   0.12500000  0.37500000  0.00000000
   0.00000000  0.25000000  0.25000000
   0.00000000  0.37500000  0.37500000
   0.12500000  0.25000000  0.37500000
   0.12500000  0.37500000  0.25000000
   0.00000000  0.25000000  0.50000000
   0.00000000  0.37500000  0.62500000
   0.12500000  0.25000000  0.62500000
   0.12500000  0.37500000  0.50000000
   0.00000000  0.25000000  0.75000000
   0.00000000  0.37500000  0.87500000
   0.12500000  0.25000000  0.87500000
   0.12500000  0.37500000  0.75000000
   0.00000000  0.50000000  0.00000000
   0.00000000  0.62500000  0.12500000
   0.12500000  0.50000000  0.12500000
   0.12500000  0.62500000  0.00000000
   0.00000000  0.50000000  0.25000000
   0.00000000  0.62500000  0.37500000
   0.12500000  0.50000000  0.37500000
   0.12500000  0.62500000  0.25000000
   0.00000000  0.50000000  0.50000000
   0.00000000  0.62500000  0.62500000
   0.12500000  0.50000000  0.62500000
   0.12500000  0.62500000  0.50000000
   0.00000000  0.50000000  0.75000000
   0.00000000  0.62500000  0.87500000
   0.12500000  0.50000000  0.87500000
   0.12500000  0.62500000  0.75000000
   0.00000000  0.75000000  0.00000000
   0.00000000  0.87500000  0.12500000
   0.12500000  0.75000000  0.12500000
   0.12500000  0.87500000  0.00000000
   0.00000000  0.75000000  0.25000000
   0.00000000  0.87500000  0.37500000
   0.12500000  0.75000000  0.37500000
   0.12500000  0.87500000  0.25000000
   0.00000000  0.75000000  0.50000000
   0.00000000  0.87500000  0.62500000
   0.12500000  0.75000000  0.62500000
   0.12500000  0.87500000  0.50000000
   0.00000000  0.75000000  0.75000000
   0.00000000  0.87500000  0.87500000
   0.12500000  0.75000000  0.87500000
   0.12500000  0.87500000  0.75000000
   0.25000000  0.00000000  0.00000000
   0.25000000  0.12500000  0.12500000
   0.37500000  0.00000000  0.12500000
   0.37500000  0.12500000  0.00000000
   0.25000000  0.00000000  0.25000000
   0.25000000  0.12500000  0.37500000
   0.37500000  0.00000000  0.37500000
   0.37500000  0.12500000  0.25000000
   0.25000000  0.00000000  0.50000000
   0.25000000  0.12500000  0.62500000
   0.37500000  0.00000000  0.62500000
   0.37500000  0.12500000  0.50000000
   0.25000000  0.00000000  0.75000000
   0.25000000  0.12500000  0.87500000
   0.37500000  0.00000000  0.87500000
   0.37500000  0.12500000  0.75000000
   0.25000000  0.25000000  0.00000000
   0.25000000  0.37500000  0.12500000
   0.37500000  0.25000000  0.12500000
   0.37500000  0.37500000  0.00000000
   0.25000000  0.25000000  0.25000000
   0.25000000  0.37500000  0.37500000
   0.37500000  0.25000000  0.37500000
   0.37500000  0.37500000  0.25000000
   0.25000000  0.25000000  0.50000000
   0.25000000  0.37500000  0.62500000
   0.37500000  0.25000000  0.62500000
   0.37500000  0.37500000  0.50000000
   0.25000000  0.25000000  0.75000000
   0.25000000  0.37500000  0.87500000
   0.37500000  0.25000000  0.87500000
   0.37500000  0.37500000  0.75000000
   0.25000000  0.50000000  0.00000000
   0.25000000  0.62500000  0.12500000
   0.37500000  0.50000000  0.12500000
   0.37500000  0.62500000  0.00000000
   0.25000000  0.50000000  0.25000000
   0.25000000  0.62500000  0.37500000
   0.37500000  0.50000000  0.37500000
   0.37500000  0.62500000  0.25000000
   0.25000000  0.50000000  0.50000000
   0.25000000  0.62500000  0.62500000
   0.37500000  0.50000000  0.62500000
   0.37500000  0.62500000  0.50000000
   0.25000000  0.50000000  0.75000000
   0.25000000  0.62500000  0.87500000
   0.37500000  0.50000000  0.87500000
   0.37500000  0.62500000  0.75000000
   0.25000000  0.75000000  0.00000000
   0.25000000  0.87500000  0.12500000
   0.37500000  0.75000000  0.12500000
   0.37500000  0.87500000  0.00000000
   0.25000000  0.75000000  0.25000000
   0.25000000  0.87500000  0.37500000
   0.37500000  0.75000000  0.37500000
   0.37500000  0.87500000  0.25000000
   0.25000000  0.75000000  0.50000000
   0.25000000  0.87500000  0.62500000
   0.37500000  0.75000000  0.62500000
   0.37500000  0.87500000  0.50000000
   0.25000000  0.75000000  0.75000000
   0.25000000  0.87500000  0.87500000
   0.37500000  0.75000000  0.87500000
   0.37500000  0.87500000  0.75000000
   0.50000000  0.00000000  0.00000000
   0.50000000  0.12500000  0.12500000
   0.62500000  0.00000000  0.12500000
   0.62500000  0.12500000  0.00000000
   0.50000000  0.00000000  0.25000000
   0.50000000  0.12500000  0.37500000
   0.62500000  0.00000000  0.37500000
   0.62500000  0.12500000  0.25000000
   0.50000000  0.00000000  0.50000000
   0.50000000  0.12500000  0.62500000
   0.62500000  0.00000000  0.62500000
   0.62500000  0.12500000  0.50000000
   0.50000000  0.00000000  0.75000000
   0.50000000  0.12500000  0.87500000
   0.62500000  0.00000000  0.87500000
   0.62500000  0.12500000  0.75000000
   0.50000000  0.25000000  0.00000000
   0.50000000  0.37500000  0.12500000
   0.62500000  0.25000000  0.12500000
   0.62500000  0.37500000  0.00000000
   0.50000000  0.25000000  0.25000000
   0.50000000  0.37500000  0.37500000
   0.62500000  0.25000000  0.37500000
   0.62500000  0.37500000  0.25000000
   0.50000000  0.25000000  0.50000000
   0.50000000  0.37500000  0.62500000
   0.62500000  0.25000000  0.62500000
   0.62500000  0.37500000  0.50000000
   0.50000000  0.25000000  0.75000000
   0.50000000  0.37500000  0.87500000
   0.62500000  0.25000000  0.87500000
   0.62500000  0.37500000  0.75000000
   0.50000000  0.50000000  0.00000000
   0.50000000  0.62500000  0.12500000
   0.62500000  0.50000000  0.12500000
   0.62500000  0.62500000  0.00000000
   0.50000000  0.50000000  0.25000000
   0.50000000  0.62500000  0.37500000
   0.62500000  0.50000000  0.37500000
   0.62500000  0.62500000  0.25000000
   0.50000000  0.50000000  0.50000000
   0.50000000  0.62500000  0.62500000
   0.62500000  0.50000000  0.62500000
   0.62500000  0.62500000  0.50000000
   0.50000000  0.50000000  0.75000000
   0.50000000  0.62500000  0.87500000
   0.62500000  0.50000000  0.87500000
   0.62500000  0.62500000  0.75000000
   0.50000000  0.75000000  0.00000000
   0.50000000  0.87500000  0.12500000
   0.62500000  0.75000000  0.12500000
   0.62500000  0.87500000  0.00000000
   0.50000000  0.75000000  0.25000000
   0.50000000  0.87500000  0.37500000
   0.62500000  0.75000000  0.37500000
   0.62500000  0.87500000  0.25000000
   0.50000000  0.75000000  0.50000000
   0.50000000  0.87500000  0.62500000
   0.62500000  0.75000000  0.62500000
   0.62500000  0.87500000  0.50000000
   0.50000000  0.75000000  0.75000000
   0.50000000  0.87500000  0.87500000
   0.62500000  0.75000000  0.87500000
   0.62500000  0.87500000  0.75000000
   0.75000000  0.00000000  0.00000000
   0.75000000  0.12500000  0.12500000
   0.87500000  0.00000000  0.12500000
   0.87500000  0.12500000  0.00000000
   0.75000000  0.00000000  0.25000000
   0.75000000  0.12500000  0.37500000
   0.87500000  0.00000000  0.37500000
   0.87500000  0.12500000  0.25000000
   0.75000000  0.00000000  0.50000000
   0.75000000  0.12500000  0.62500000
   0.87500000  0.00000000  0.62500000
   0.87500000  0.12500000  0.50000000
   0.75000000  0.00000000  0.75000000
   0.75000000  0.12500000  0.87500000
   0.87500000  0.00000000  0.87500000
   0.87500000  0.12500000  0.75000000
   0.75000000  0.25000000  0.00000000
   0.75000000  0.37500000  0.12500000
   0.87500000  0.25000000  0.12500000
   0.87500000  0.37500000  0.00000000
   0.75000000  0.25000000  0.25000000
   0.75000000  0.37500000  0.37500000
   0.87500000  0.25000000  0.37500000
   0.87500000  0.37500000  0.25000000
   0.75000000  0.25000000  0.50000000
   0.75000000  0.37500000  0.62500000
   0.87500000  0.25000000  0.62500000
   0.87500000  0.37500000  0.50000000
   0.75000000  0.25000000  0.75000000
   0.75000000  0.37500000  0.87500000
   0.87500000  0.25000000  0.87500000
   0.87500000  0.37500000  0.75000000
   0.75000000  0.50000000  0.00000000
   0.75000000  0.62500000  0.12500000
   0.87500000  0.50000000  0.12500000
   0.87500000  0.62500000  0.00000000
   0.75000000  0.50000000  0.25000000
   0.75000000  0.62500000  0.37500000
   0.87500000  0.50000000  0.37500000
   0.87500000  0.62500000  0.25000000
   0.75000000  0.50000000  0.50000000
   0.75000000  0.62500000  0.62500000
   0.87500000  0.50000000  0.62500000
   0.87500000  0.62500000  0.50000000
   0.75000000  0.50000000  0.75000000
   0.75000000  0.62500000  0.87500000
   0.87500000  0.50000000  0.87500000
   0.87500000  0.62500000  0.75000000
   0.75000000  0.75000000  0.00000000
   0.75000000  0.87500000  0.12500000
   0.87500000  0.75000000  0.12500000
   0.87500000  0.87500000  0.00000000
   0.75000000  0.75000000  0.25000000
   0.75000000  0.87500000  0.37500000
   0.87500000  0.75000000  0.37500000
   0.87500000  0.87500000  0.25000000
   0.75000000  0.75000000  0.50000000
   0.75000000  0.87500000  0.62500000
   0.87500000  0.75000000  0.62500000
   0.87500000  0.87500000  0.50000000
   0.75000000  0.75000000  0.75000000
   0.75000000  0.87500000  0.87500000
   0.87500000  0.75000000  0.87500000
   0.87500000  0.87500000  0.75000000
   0.06250000  0.06250000  0.06250000
Direct configuration=     2
  -0.00712639 -0.00712639 -0.00712639
  -0.00712639  0.13212639  0.13212639
   0.13212639 -0.00712639  0.13212639
   0.13212639  0.13212639 -0.00712639
  -0.00024087 -0.00024087  0.25054170
   0.00000797  0.12499203  0.37498381
   0.12499203  0.00000797  0.37498381
   0.12524087  0.12524087  0.25054170
  -0.00000608 -0.00000608  0.50000454
  -0.00000608  0.12500608  0.62499546
   0.12500608 -0.00000608  0.62499546
   0.12500608  0.12500608  0.50000454
   0.00000797  0.00000797  0.75001619
  -0.00024087  0.12524087  0.87445830
   0.12524087 -0.00024087  0.87445830
   0.12499203  0.12499203  0.75001619
  -0.00024087  0.25054170 -0.00024087
   0.00000797  0.37498381  0.12499203
   0.12524087  0.25054170  0.12524087
   0.12499203  0.37498381  0.00000797
  -0.00004863  0.25002978  0.25002978
   0.00000272  0.37502829  0.37502829
   0.12498049  0.25000225  0.37499714
   0.12498049  0.37499714  0.25000225
   0.00000091  0.25000593  0.50000829
   0.00000593  0.37500115  0.62500109
   0.12499909  0.25000593  0.62499171
   0.12499407  0.37500115  0.49999891
   0.00001951  0.25000225  0.75000286
   0.00001951  0.37499714  0.87499775
   0.12504863  0.25002978  0.87497022
   0.12499728  0.37502829  0.74997171
  -0.00000608  0.50000454 -0.00000608
  -0.00000608  0.62499546  0.12500608
   0.12500608  0.50000454  0.12500608
   0.12500608  0.62499546 -0.00000608
   0.00000091  0.50000829  0.25000593
   0.00000593  0.62500109  0.37500115
   0.12499407  0.49999891  0.37500115
   0.12499909  0.62499171  0.25000593
  -0.00000326  0.50000866  0.50000866
  -0.00000326  0.62499134  0.62499134
   0.12500326  0.50000866  0.62499134
   0.12500326  0.62499134  0.50000866
   0.00000593  0.49999891  0.74999885
   0.00000091  0.62499171  0.87499407
   0.12499909  0.50000829  0.87499407
   0.12499407  0.62500109  0.74999885
   0.00000797  0.75001619  0.00000797
  -0.00024087  0.87445830  0.12524087
   0.12499203  0.75001619  0.12499203
   0.12524087  0.87445830 -0.00024087
   0.00001951  0.75000286  0.25000225
   0.00001951  0.87499775  0.37499714
   0.12499728  0.74997171  0.37502829
   0.12504863  0.87497022  0.25002978
   0.00000593  0.74999885  0.49999891
   0.00000091  0.87499407  0.62499171
   0.12499407  0.74999885  0.62500109
   0.12499909  0.87499407  0.50000829
   0.00000272  0.74997171  0.74997171
  -0.00004863  0.87497022  0.87497022
   0.12498049  0.75000286  0.87499775
   0.12498049  0.87499775  0.75000286
   0.25054170 -0.00024087 -0.00024087
   0.25054170  0.12524087  0.12524087
   0.37498381  0.00000797  0.12499203
   0.37498381  0.12499203  0.00000797
   0.25002978 -0.00004863  0.25002978
   0.25000225  0.12498049  0.37499714
   0.37502829  0.00000272  0.37502829
   0.37499714  0.12498049  0.25000225
   0.25000593  0.00000091  0.50000829
   0.25000593  0.12499909  0.62499171
   0.37500115  0.00000593  0.62500109
   0.37500115  0.12499407  0.49999891
   0.25000225  0.00001951  0.75000286
   0.25002978  0.12504863  0.87497022
   0.37499714  0.00001951  0.87499775
   0.37502829  0.12499728  0.74997171
   0.25002978  0.25002978 -0.00004863
   0.25000225  0.37499714  0.12498049
   0.37499714  0.25000225  0.12498049
   0.37502829  0.37502829  0.00000272
   0.24996086  0.24996086  0.24996086
   0.25000108  0.37500380  0.37500380
   0.37500380  0.25000108  0.37500380
   0.37500380  0.37500380  0.25000108
   0.25000342  0.25000342  0.50001386
   0.24999585  0.37500153  0.62499499
   0.37500153  0.24999585  0.62499499
   0.37500392  0.37500392  0.50000325
   0.24998533  0.24998533  0.75001804
   0.24998533  0.37498196  0.87501467
   0.37498196  0.24998533  0.87501467
   0.37500754  0.37500754  0.74999246
   0.25000593  0.50000829  0.00000091
   0.25000593  0.62499171  0.12499909
   0.37500115  0.49999891  0.12499407
   0.37500115  0.62500109  0.00000593
   0.25000342  0.50001386  0.25000342
   0.24999585  0.62499499  0.37500153
   0.37500392  0.50000325  0.37500392
   0.37500153  0.62499499  0.24999585
   0.25000250  0.50000344  0.50000344
   0.25000250  0.62499656  0.62499656
   0.37500053  0.50000322  0.62499678
   0.37500053  0.62499678  0.50000322
   0.24999585  0.50000501  0.74999847
   0.25000342  0.62498614  0.87499658
   0.37500153  0.50000501  0.87500415
   0.37500392  0.62499675  0.74999608
   0.25000225  0.75000286  0.00001951
   0.25002978  0.87497022  0.12504863
   0.37502829  0.74997171  0.12499728
   0.37499714  0.87499775  0.00001951
   0.24998533  0.75001804  0.24998533
   0.24998533  0.87501467  0.37498196
   0.37500754  0.74999246  0.37500754
   0.37498196  0.87501467  0.24998533
   0.24999585  0.74999847  0.50000501
   0.25000342  0.87499658  0.62498614
   0.37500392  0.74999608  0.62499675
   0.37500153  0.87500415  0.50000501
   0.25000108  0.74999620  0.74999620
   0.24996086  0.87503914  0.87503914
   0.37500380  0.74999620  0.87499892
   0.37500380  0.87499892  0.74999620
   0.50000454 -0.00000608 -0.00000608
   0.50000454  0.12500608  0.12500608
   0.62499546 -0.00000608  0.12500608
   0.62499546  0.12500608 -0.00000608
   0.50000829  0.00000091  0.25000593
   0.49999891  0.12499407  0.37500115
   0.62500109  0.00000593  0.37500115
   0.62499171  0.12499909  0.25000593
   0.50000866 -0.00000326  0.50000866
   0.50000866  0.12500326  0.62499134
   0.62499134 -0.00000326  0.62499134
   0.62499134  0.12500326  0.50000866
   0.49999891  0.00000593  0.74999885
   0.50000829  0.12499909  0.87499407
   0.62499171  0.00000091  0.87499407
   0.62500109  0.12499407  0.74999885
   0.50000829  0.25000593  0.00000091
   0.49999891  0.37500115  0.12499407
   0.62499171  0.25000593  0.12499909
   0.62500109  0.37500115  0.00000593
   0.50001386  0.25000342  0.25000342
   0.50000325  0.37500392  0.37500392
   0.62499499  0.24999585  0.37500153
   0.62499499  0.37500153  0.24999585
   0.50000344  0.25000250  0.50000344
   0.50000322  0.37500053  0.62499678
   0.62499656  0.25000250  0.62499656
   0.62499678  0.37500053  0.50000322
   0.50000501  0.24999585  0.74999847
   0.50000501  0.37500153  0.87500415
   0.62498614  0.25000342  0.87499658
   0.62499675  0.37500392  0.74999608
   0.50000866  0.50000866 -0.00000326
   0.50000866  0.62499134  0.12500326
   0.62499134  0.50000866  0.12500326
   0.62499134  0.62499134 -0.00000326
   0.50000344  0.50000344  0.25000250
   0.50000322  0.62499678  0.37500053
   0.62499678  0.50000322  0.37500053
   0.62499656  0.62499656  0.25000250
   0.50000349  0.50000349  0.50000349
   0.50000349  0.62499651  0.62499651
   0.62499651  0.50000349  0.62499651
   0.62499651  0.62499651  0.50000349
   0.50000322  0.50000322  0.74999947
   0.50000344  0.62499656  0.87499750
   0.62499656  0.50000344  0.87499750
   0.62499678  0.62499678  0.74999947
   0.49999891  0.74999885  0.00000593
   0.50000829  0.87499407  0.12499909
   0.62500109  0.74999885  0.12499407
   0.62499171  0.87499407  0.00000091
   0.50000501  0.74999847  0.24999585
   0.50000501  0.87500415  0.37500153
   0.62499675  0.74999608  0.37500392
   0.62498614  0.87499658  0.25000342
   0.50000322  0.74999947  0.50000322
   0.50000344  0.87499750  0.62499656
   0.62499678  0.74999947  0.62499678
   0.62499656  0.87499750  0.50000344
   0.50000325  0.74999608  0.74999608
   0.50001386  0.87499658  0.87499658
   0.62499499  0.74999847  0.87500415
   0.62499499  0.87500415  0.74999847
   0.75001619  0.00000797  0.00000797
   0.75001619  0.12499203  0.12499203
   0.87445830 -0.00024087  0.12524087
   0.87445830  0.12524087 -0.00024087
   0.75000286  0.00001951  0.25000225
   0.74997171  0.12499728  0.37502829
   0.87499775  0.00001951  0.37499714
   0.87497022  0.12504863  0.25002978
   0.74999885  0.00000593  0.49999891
   0.74999885  0.12499407  0.62500109
   0.87499407  0.00000091  0.62499171
   0.87499407  0.12499909  0.50000829
   0.74997171  0.00000272  0.74997171
   0.75000286  0.12498049  0.87499775
   0.87497022 -0.00004863  0.87497022
   0.87499775  0.12498049  0.75000286
   0.75000286  0.25000225  0.00001951
   0.74997171  0.37502829  0.12499728
   0.87497022  0.25002978  0.12504863
   0.87499775  0.37499714  0.00001951
   0.75001804  0.24998533  0.24998533
   0.74999246  0.37500754  0.37500754
   0.87501467  0.24998533  0.37498196
   0.87501467  0.37498196  0.24998533
   0.74999847  0.24999585  0.50000501
   0.74999608  0.37500392  0.62499675
   0.87499658  0.25000342  0.62498614
   0.87500415  0.37500153  0.50000501
   0.74999620  0.25000108  0.74999620
   0.74999620  0.37500380  0.87499892
   0.87503914  0.24996086  0.87503914
   0.87499892  0.37500380  0.74999620
   0.74999885  0.49999891  0.00000593
   0.74999885  0.62500109  0.12499407
   0.87499407  0.50000829  0.12499909
   0.87499407  0.62499171  0.00000091
   0.74999847  0.50000501  0.24999585
   0.74999608  0.62499675  0.37500392
   0.87500415  0.50000501  0.37500153
   0.87499658  0.62498614  0.25000342
   0.74999947  0.50000322  0.50000322
   0.74999947  0.62499678  0.62499678
   0.87499750  0.50000344  0.62499656
   0.87499750  0.62499656  0.50000344
   0.74999608  0.50000325  0.74999608
   0.74999847  0.62499499  0.87500415
   0.87499658  0.50001386  0.87499658
   0.87500415  0.62499499  0.74999847
   0.74997171  0.74997171  0.00000272
   0.75000286  0.87499775  0.12498049
   0.87499775  0.75000286  0.12498049
   0.87497022  0.87497022 -0.00004863
   0.74999620  0.74999620  0.25000108
   0.74999620  0.87499892  0.37500380
   0.87499892  0.74999620  0.37500380
   0.87503914  0.87503914  0.24996086
   0.74999608  0.74999608  0.50000325
   0.74999847  0.87500415  0.62499499
   0.87500415  0.74999847  0.62499499
   0.87499658  0.87499658  0.50001386
   0.74999246  0.74999246  0.74999246
   0.75001804  0.87501467  0.87501467
   0.87501467  0.75001804  0.87501467
   0.87501467  0.87501467  0.75001804
   0.06250000  0.06250000  0.06250000
Direct configuration=     3
  -0.00913660 -0.00913660 -0.00913660
  -0.00913660  0.13413660  0.13413660
   0.13413660 -0.00913660  0.13413660
   0.13413660  0.13413660 -0.00913660
  -0.00030882 -0.00030882  0.25069451
   0.00001022  0.12498978  0.37497925
   0.12498978  0.00001022  0.37497925
   0.12530882  0.12530882  0.25069451
  -0.00000779 -0.00000779  0.50000582
  -0.00000779  0.12500779  0.62499418
   0.12500779 -0.00000779  0.62499418
   0.12500779  0.12500779  0.50000582
   0.00001022  0.00001022  0.75002075
  -0.00030882  0.12530882  0.87430549
   0.12530882 -0.00030882  0.87430549
   0.12498978  0.12498978  0.75002075
  -0.00030882  0.25069451 -0.00030882
   0.00001022  0.37497925  0.12498978
   0.12530882  0.25069451  0.12530882
   0.12498978  0.37497925  0.00001022
  -0.00006234  0.25003817  0.25003817
   0.00000348  0.37503627  0.37503627
   0.12497499  0.25000288  0.37499634
   0.12497499  0.37499634  0.25000288
   0.00000116  0.25000761  0.50001063
   0.00000761  0.37500148  0.62500140
   0.12499884  0.25000761  0.62498937
   0.12499239  0.37500148  0.49999860
   0.00002501  0.25000288  0.75000366
   0.00002501  0.37499634  0.87499712
   0.12506234  0.25003817  0.87496183
   0.12499652  0.37503627  0.74996373
  -0.00000779  0.50000582 -0.00000779
  -0.00000779  0.62499418  0.12500779
   0.12500779  0.50000582  0.12500779
   0.12500779  0.62499418 -0.00000779
   0.00000116  0.50001063  0.25000761
   0.00000761  0.62500140  0.37500148
   0.12499239  0.49999860  0.37500148
   0.12499884  0.62498937  0.25000761
  -0.00000418  0.50001110  0.50001110
  -0.00000418  0.62498890  0.62498890
   0.12500418  0.50001110  0.62498890
   0.12500418  0.62498890  0.50001110
   0.00000761  0.49999860  0.74999852
   0.00000116  0.62498937  0.87499239
   0.12499884  0.50001063  0.87499239
   0.12499239  0.62500140  0.74999852
   0.00001022  0.75002075  0.00001022
  -0.00030882  0.87430549  0.12530882
   0.12498978  0.75002075  0.12498978
   0.12530882  0.87430549 -0.00030882
   0.00002501  0.75000366  0.25000288
   0.00002501  0.87499712  0.37499634
   0.12499652  0.74996373  0.37503627
   0.12506234  0.87496183  0.25003817
   0.00000761  0.74999852  0.49999860
   0.00000116  0.87499239  0.62498937
   0.12499239  0.74999852  0.62500140
   0.12499884  0.87499239  0.50001063
   0.00000348  0.74996373  0.74996373
  -0.00006234  0.87496183  0.87496183
   0.12497499  0.75000366  0.87499712
   0.12497499  0.87499712  0.75000366
   0.25069451 -0.00030882 -0.00030882
   0.25069451  0.12530882  0.12530882
   0.37497925  0.00001022  0.12498978
   0.37497925  0.12498978  0.00001022
   0.25003817 -0.00006234  0.25003817
   0.25000288  0.12497499  0.37499634
   0.37503627  0.00000348  0.37503627
   0.37499634  0.12497499  0.25000288
   0.25000761  0.00000116  0.50001063
   0.25000761  0.12499884  0.62498937
   0.37500148  0.00000761  0.62500140
   0.37500148  0.12499239  0.49999860
   0.25000288  0.00002501  0.75000366
   0.25003817  0.12506234  0.87496183
   0.37499634  0.00002501  0.87499712
   0.37503627  0.12499652  0.74996373
   0.25003817  0.25003817 -0.00006234
   0.25000288  0.37499634  0.12497499
   0.37499634  0.25000288  0.12497499
   0.37503627  0.37503627  0.00000348
   0.24994982  0.24994982  0.24994982
   0.25000139  0.37500487  0.37500487
   0.37500487  0.25000139  0.37500487
   0.37500487  0.37500487  0.25000139
   0.25000438  0.25000438  0.50001778
   0.24999468  0.37500196  0.62499358
   0.37500196  0.24999468  0.62499358
   0.37500503  0.37500503  0.50000417
   0.24998119  0.24998119  0.75002312
   0.24998119  0.37497688  0.87501881
   0.37497688  0.24998119  0.87501881
   0.37500967  0.37500967  0.74999033
   0.25000761  0.50001063  0.00000116
   0.25000761  0.62498937  0.12499884
   0.37500148  0.49999860  0.12499239
   0.37500148  0.62500140  0.00000761
   0.25000438  0.50001778  0.25000438
   0.24999468  0.62499358  0.37500196
   0.37500503  0.50000417  0.37500503
   0.37500196  0.62499358  0.24999468
   0.25000321  0.50000441  0.50000441
   0.25000321  0.62499559  0.62499559
   0.37500068  0.50000413  0.62499587
   0.37500068  0.62499587  0.50000413
   0.24999468  0.50000642  0.74999804
   0.25000438  0.62498222  0.87499562
   0.37500196  0.50000642  0.87500532
   0.37500503  0.62499583  0.74999497
   0.25000288  0.75000366  0.00002501
   0.25003817  0.87496183  0.12506234
   0.37503627  0.74996373  0.12499652
   0.37499634  0.87499712  0.00002501
   0.24998119  0.75002312  0.24998119
   0.24998119  0.87501881  0.37497688
   0.37500967  0.74999033  0.37500967
   0.37497688  0.87501881  0.24998119
   0.24999468  0.74999804  0.50000642
   0.25000438  0.87499562  0.62498222
   0.37500503  0.74999497  0.62499583
   0.37500196  0.87500532  0.50000642
   0.25000139  0.74999513  0.74999513
   0.24994982  0.87505018  0.87505018
   0.37500487  0.74999513  0.87499861
   0.37500487  0.87499861  0.74999513
   0.50000582 -0.00000779 -0.00000779
   0.50000582  0.12500779  0.12500779
   0.62499418 -0.00000779  0.12500779
   0.62499418  0.12500779 -0.00000779
   0.50001063  0.00000116  0.25000761
   0.49999860  0.12499239  0.37500148
   0.62500140  0.00000761  0.37500148
   0.62498937  0.12499884  0.25000761
   0.50001110 -0.00000418  0.50001110
   0.50001110  0.12500418  0.62498890
   0.62498890 -0.00000418  0.62498890
   0.62498890  0.12500418  0.50001110
   0.49999860  0.00000761  0.74999852
   0.50001063  0.12499884  0.87499239
   0.62498937  0.00000116  0.87499239
   0.62500140  0.12499239  0.74999852
   0.50001063  0.25000761  0.00000116
   0.49999860  0.37500148  0.12499239
   0.62498937  0.25000761  0.12499884
   0.62500140  0.37500148  0.00000761
   0.50001778  0.25000438  0.25000438
   0.50000417  0.37500503  0.37500503
   0.62499358  0.24999468  0.37500196
   0.62499358  0.37500196  0.24999468
   0.50000441  0.25000321  0.50000441
   0.50000413  0.37500068  0.62499587
   0.62499559  0.25000321  0.62499559
   0.62499587  0.37500068  0.50000413
   0.50000642  0.24999468  0.74999804
   0.50000642  0.37500196  0.87500532
   0.62498222  0.25000438  0.87499562
   0.62499583  0.37500503  0.74999497
   0.50001110  0.50001110 -0.00000418
   0.50001110  0.62498890  0.12500418
   0.62498890  0.50001110  0.12500418
   0.62498890  0.62498890 -0.00000418
   0.50000441  0.50000441  0.25000321
   0.50000413  0.62499587  0.37500068
   0.62499587  0.50000413  0.37500068
   0.62499559  0.62499559  0.25000321
   0.50000448  0.50000448  0.50000448
   0.50000448  0.62499552  0.62499552
   0.62499552  0.50000448  0.62499552
   0.62499552  0.62499552  0.50000448
   0.50000413  0.50000413  0.74999932
   0.50000441  0.62499559  0.87499679
   0.62499559  0.50000441  0.87499679
   0.62499587  0.62499587  0.74999932
   0.49999860  0.74999852  0.00000761
   0.50001063  0.87499239  0.12499884
   0.62500140  0.74999852  0.12499239
   0.62498937  0.87499239  0.00000116
   0.50000642  0.74999804  0.24999468
   0.50000642  0.87500532  0.37500196
   0.62499583  0.74999497  0.37500503
   0.62498222  0.87499562  0.25000438
   0.50000413  0.74999932  0.50000413
   0.50000441  0.87499679  0.62499559
   0.62499587  0.74999932  0.62499587
   0.62499559  0.87499679  0.50000441
   0.50000417  0.74999497  0.74999497
   0.50001778  0.87499562  0.87499562
   0.62499358  0.74999804  0.87500532
   0.62499358  0.87500532  0.74999804
   0.75002075  0.00001022  0.00001022
   0.75002075  0.12498978  0.12498978
   0.87430549 -0.00030882  0.12530882
   0.87430549  0.12530882 -0.00030882
   0.75000366  0.00002501  0.25000288
   0.74996373  0.12499652  0.37503627
   0.87499712  0.00002501  0.37499634
   0.87496183  0.12506234  0.25003817
   0.74999852  0.00000761  0.49999860
   0.74999852  0.12499239  0.62500140
   0.87499239  0.00000116  0.62498937
   0.87499239  0.12499884  0.50001063
   0.74996373  0.00000348  0.74996373
   0.75000366  0.12497499  0.87499712
   0.87496183 -0.00006234  0.87496183
   0.87499712  0.12497499  0.75000366
   0.75000366  0.25000288  0.00002501
   0.74996373  0.37503627  0.12499652
   0.87496183  0.25003817  0.12506234
   0.87499712  0.37499634  0.00002501
   0.75002312  0.24998119  0.24998119
   0.74999033  0.37500967  0.37500967
   0.87501881  0.24998119  0.37497688
   0.87501881  0.37497688  0.24998119
   0.74999804  0.24999468  0.50000642
   0.74999497  0.37500503  0.62499583
   0.87499562  0.25000438  0.62498222
   0.87500532  0.37500196  0.50000642
   0.74999513  0.25000139  0.74999513
   0.74999513  0.37500487  0.87499861
   0.87505018  0.24994982  0.87505018
   0.87499861  0.37500487  0.74999513
   0.74999852  0.49999860  0.00000761
   0.74999852  0.62500140  0.12499239
   0.87499239  0.50001063  0.12499884
   0.87499239  0.62498937  0.00000116
   0.74999804  0.50000642  0.24999468
   0.74999497  0.62499583  0.37500503
   0.87500532  0.50000642  0.37500196
   0.87499562  0.62498222  0.25000438
   0.74999932  0.50000413  0.50000413
   0.74999932  0.62499587  0.62499587
   0.87499679  0.50000441  0.62499559
   0.87499679  0.62499559  0.50000441
   0.74999497  0.50000417  0.74999497
   0.74999804  0.62499358  0.87500532
   0.87499562  0.50001778  0.87499562
   0.87500532  0.62499358  0.74999804
   0.74996373  0.74996373  0.00000348
   0.75000366  0.87499712  0.12497499
   0.87499712  0.75000366  0.12497499
   0.87496183  0.87496183 -0.00006234
   0.74999513  0.74999513  0.25000139
   0.74999513  0.87499861  0.37500487
   0.87499861  0.74999513  0.37500487
   0.87505018  0.87505018  0.24994982
   0.74999497  0.74999497  0.50000417
   0.74999804  0.87500532  0.62499358
   0.87500532  0.74999804  0.62499358
   0.87499562  0.87499562  0.50001778
   0.74999033  0.74999033  0.74999033
   0.75002312  0.87501881  0.87501881
   0.87501881  0.75002312  0.87501881
   0.87501881  0.87501881  0.75002312
   0.06250000  0.06250000  0.06250000
Direct configuration=     4
  -0.00881915 -0.00881915 -0.00881915
  -0.00881915  0.13381915  0.13381915
   0.13381915 -0.00881915  0.13381915
   0.13381915  0.13381915 -0.00881915
  -0.00029809 -0.00029809  0.25067038
   0.00000986  0.12499014  0.37497997
   0.12499014  0.00000986  0.37497997
   0.12529809  0.12529809  0.25067038
  -0.00000752 -0.00000752  0.50000562
  -0.00000752  0.12500752  0.62499438