 254 254   0   0
  0.2268316E+02  0.1514622E-08  0.1514622E-08  0.2900000E-08  0.5000000E-15
   1.0000000000000000E-004
  CAR 
 NiAl                                    
      5.92164946    -23.08434569  301     -0.59597625      1.00000000
    -23.084  0.0000E+00  0.0000E+00
    -22.988  0.0000E+00  0.0000E+00
    -22.891  0.0000E+00  0.0000E+00
    -22.794  0.0000E+00  0.0000E+00
    -22.698  0.0000E+00  0.0000E+00
    -22.601  0.0000E+00  0.0000E+00
    -22.504  0.0000E+00  0.0000E+00
    -22.408  0.0000E+00  0.0000E+00
    -22.311  0.0000E+00  0.0000E+00
    -22.214  0.0000E+00  0.0000E+00
    -22.117  0.0000E+00  0.0000E+00
    -22.021  0.5612E-11  0.5426E-12
    -21.924  0.7739E-04  0.7482E-05
    -21.827  0.8379E+00  0.8102E-01
    -21.731  0.1651E+02  0.1678E+01
    -21.634  0.3331E+01  0.2000E+01
    -21.537  0.2023E-02  0.2000E+01
    -21.441  0.1088E-08  0.2000E+01
    -21.344  0.0000E+00  0.2000E+01
    -21.247  0.0000E+00  0.2000E+01
    -21.151  0.0000E+00  0.2000E+01
    -21.054  0.0000E+00  0.2000E+01
    -20.957  0.0000E+00  0.2000E+01
    -20.861  0.0000E+00  0.2000E+01
    -20.764  0.0000E+00  0.2000E+01
    -20.667  0.0000E+00  0.2000E+01
    -20.570  0.0000E+00  0.2000E+01
    -20.474  0.0000E+00  0.2000E+01
    -20.377  0.0000E+00  0.2000E+01
    -20.280  0.0000E+00  0.2000E+01
    -20.184  0.0000E+00  0.2000E+01
    -20.087  0.0000E+00  0.2000E+01
    -19.990  0.0000E+00  0.2000E+01
    -19.894  0.0000E+00  0.2000E+01
    -19.797  0.0000E+00  0.2000E+01
    -19.700  0.0000E+00  0.2000E+01
    -19.604  0.0000E+00  0.2000E+01
    -19.507  0.0000E+00  0.2000E+01
    -19.410  0.0000E+00  0.2000E+01
    -19.314  0.0000E+00  0.2000E+01
    -19.217  0.0000E+00  0.2000E+01
    -19.120  0.0000E+00  0.2000E+01
    -19.024  0.0000E+00  0.2000E+01
    -18.927  0.0000E+00  0.2000E+01
    -18.830  0.0000E+00  0.2000E+01
    -18.733  0.0000E+00  0.2000E+01
    -18.637  0.0000E+00  0.2000E+01
    -18.540  0.0000E+00  0.2000E+01
    -18.443  0.0000E+00  0.2000E+01
    -18.347  0.0000E+00  0.2000E+01
    -18.250  0.0000E+00  0.2000E+01
    -18.153  0.0000E+00  0.2000E+01
    -18.057  0.0000E+00  0.2000E+01
    -17.960  0.0000E+00  0.2000E+01
    -17.863  0.0000E+00  0.2000E+01
    -17.767  0.0000E+00  0.2000E+01
    -17.670  0.0000E+00  0.2000E+01
    -17.573  0.0000E+00  0.2000E+01
    -17.477  0.0000E+00  0.2000E+01
    -17.380  0.0000E+00  0.2000E+01
    -17.283  0.0000E+00  0.2000E+01
    -17.186  0.0000E+00  0.2000E+01
    -17.090  0.0000E+00  0.2000E+01
    -16.993  0.0000E+00  0.2000E+01
    -16.896  0.0000E+00  0.2000E+01
    -16.800  0.0000E+00  0.2000E+01
    -16.703  0.0000E+00  0.2000E+01
    -16.606  0.0000E+00  0.2000E+01
    -16.510  0.0000E+00  0.2000E+01
    -16.413  0.0000E+00  0.2000E+01
    -16.316  0.0000E+00  0.2000E+01
    -16.220  0.0000E+00  0.2000E+01
    -16.123  0.0000E+00  0.2000E+01
    -16.026  0.0000E+00  0.2000E+01
    -15.930  0.0000E+00  0.2000E+01
    -15.833  0.0000E+00  0.2000E+01
    -15.736  0.0000E+00  0.2000E+01
    -15.639  0.0000E+00  0.2000E+01
    -15.543  0.0000E+00  0.2000E+01
    -15.446  0.0000E+00  0.2000E+01
    -15.349  0.0000E+00  0.2000E+01
    -15.253  0.9493E-10  0.2000E+01
    -15.156  0.4576E-03  0.2000E+01
    -15.059  0.1832E+01  0.2177E+01
    -14.963  0.1714E+02  0.3834E+01
    -14.866  0.1716E+01  0.4000E+01
    -14.769  0.3918E-03  0.4000E+01
    -14.673  0.7390E-10  0.4000E+01
    -14.576  0.0000E+00  0.4000E+01
    -14.479  0.0000E+00  0.4000E+01
    -14.383  0.0000E+00  0.4000E+01
    -14.286  0.0000E+00  0.4000E+01
    -14.189  0.0000E+00  0.4000E+01
    -14.092  0.0000E+00  0.4000E+01
    -13.996  0.0000E+00  0.4000E+01
    -13.899  0.0000E+00  0.4000E+01
    -13.802  0.0000E+00  0.4000E+01
    -13.706  0.0000E+00  0.4000E+01
    -13.609  0.0000E+00  0.4000E+01
    -13.512  0.0000E+00  0.4000E+01
    -13.416  0.0000E+00  0.4000E+01
    -13.319  0.0000E+00  0.4000E+01
    -13.222  0.0000E+00  0.4000E+01
    -13.126  0.0000E+00  0.4000E+01
    -13.029  0.0000E+00  0.4000E+01
    -12.932  0.0000E+00  0.4000E+01
    -12.836  0.0000E+00  0.4000E+01
    -12.739  0.0000E+00  0.4000E+01
    -12.642  0.0000E+00  0.4000E+01
    -12.546  0.0000E+00  0.4000E+01
    -12.449  0.0000E+00  0.4000E+01
    -12.352  0.0000E+00  0.4000E+01
    -12.255  0.0000E+00  0.4000E+01
    -12.159  0.0000E+00  0.4000E+01
    -12.062  0.0000E+00  0.4000E+01
    -11.965  0.0000E+00  0.4000E+01
    -11.869  0.0000E+00  0.4000E+01
    -11.772  0.0000E+00  0.4000E+01
    -11.675  0.0000E+00  0.4000E+01
    -11.579  0.0000E+00  0.4000E+01
    -11.482  0.0000E+00  0.4000E+01
    -11.385  0.0000E+00  0.4000E+01
    -11.289  0.0000E+00  0.4000E+01
    -11.192  0.0000E+00  0.4000E+01
    -11.095  0.0000E+00  0.4000E+01
    -10.999  0.0000E+00  0.4000E+01
    -10.902  0.0000E+00  0.4000E+01
    -10.805  0.0000E+00  0.4000E+01
    -10.708  0.0000E+00  0.4000E+01
    -10.612  0.0000E+00  0.4000E+01
    -10.515  0.0000E+00  0.4000E+01
    -10.418  0.0000E+00  0.4000E+01
    -10.322  0.0000E+00  0.4000E+01
    -10.225  0.0000E+00  0.4000E+01
    -10.128  0.0000E+00  0.4000E+01
    -10.032  0.0000E+00  0.4000E+01
     -9.935  0.0000E+00  0.4000E+01
     -9.838  0.0000E+00  0.4000E+01
     -9.742  0.0000E+00  0.4000E+01
     -9.645  0.0000E+00  0.4000E+01
     -9.548  0.0000E+00  0.4000E+01
     -9.452  0.2871E-15  0.4000E+01
     -9.355  0.4413E-07  0.4000E+01
     -9.258  0.9506E-02  0.4001E+01
     -9.161  0.2227E+01  0.4216E+01
     -9.065  0.2909E+01  0.4498E+01
     -8.968  0.3256E+01  0.4812E+01
     -8.871  0.2563E+02  0.7290E+01
     -8.775  0.2170E+01  0.7500E+01
     -8.678  0.3702E+00  0.7536E+01
     -8.581  0.4297E+01  0.7951E+01
     -8.485  0.1102E+02  0.9016E+01
     -8.388  0.3961E+02  0.1285E+02
     -8.291  0.1528E+02  0.1432E+02
     -8.195  0.2562E+02  0.1680E+02
     -8.098  0.2067E+01  0.1700E+02
     -8.001  0.3196E+01  0.1731E+02
     -7.905  0.2564E+02  0.1979E+02
     -7.808  0.5212E+01  0.2029E+02
     -7.711  0.2727E+02  0.2293E+02
     -7.614  0.3394E+02  0.2621E+02
     -7.518  0.6331E+02  0.3233E+02
     -7.421  0.1744E+01  0.3250E+02
     -7.324  0.7657E-02  0.3250E+02
     -7.228  0.7780E+01  0.3325E+02
     -7.131  0.7108E+02  0.4013E+02
     -7.034  0.4524E+02  0.4450E+02
     -6.938  0.2138E+02  0.4657E+02
     -6.841  0.9860E+01  0.4752E+02
     -6.744  0.1943E+02  0.4940E+02
     -6.648  0.2078E+02  0.5141E+02
     -6.551  0.4577E+02  0.5583E+02
     -6.454  0.3663E+02  0.5938E+02
     -6.358  0.8343E+02  0.6744E+02
     -6.261  0.1731E+02  0.6912E+02
     -6.164  0.4353E+02  0.7332E+02
     -6.067  0.5435E+02  0.7858E+02
     -5.971  0.1092E+03  0.8914E+02
     -5.874  0.2942E+02  0.9198E+02
     -5.777  0.9680E+00  0.9208E+02
     -5.681  0.8389E+01  0.9289E+02
     -5.584  0.3786E+02  0.9655E+02
     -5.487  0.9683E+02  0.1059E+03
     -5.391  0.1358E+03  0.1190E+03
     -5.294  0.4361E+02  0.1233E+03
     -5.197  0.8702E+02  0.1317E+03
     -5.101  0.1056E+03  0.1419E+03
     -5.004  0.1106E+03  0.1526E+03
     -4.907  0.3532E+02  0.1560E+03
     -4.811  0.1300E+03  0.1686E+03
     -4.714  0.2748E+03  0.1951E+03
     -4.617  0.1394E+03  0.2086E+03
     -4.521  0.2535E+03  0.2331E+03
     -4.424  0.2568E+03  0.2579E+03
     -4.327  0.3026E+03  0.2872E+03
     -4.230  0.2290E+03  0.3093E+03
     -4.134  0.2403E+03  0.3326E+03
     -4.037  0.2991E+03  0.3615E+03
     -3.940  0.4177E+03  0.4019E+03
     -3.844  0.5261E+03  0.4527E+03
     -3.747  0.4596E+03  0.4972E+03
     -3.650  0.4041E+03  0.5362E+03
     -3.554  0.4734E+03  0.5820E+03
     -3.457  0.3653E+03  0.6173E+03
     -3.360  0.3340E+03  0.6496E+03
     -3.264  0.3778E+03  0.6861E+03
     -3.167  0.5176E+03  0.7362E+03
     -3.070  0.4665E+03  0.7813E+03
     -2.974  0.3387E+03  0.8140E+03
     -2.877  0.6203E+03  0.8740E+03
     -2.780  0.5192E+03  0.9242E+03
     -2.683  0.5125E+03  0.9738E+03
     -2.587  0.5350E+03  0.1025E+04
     -2.490  0.6526E+03  0.1089E+04
     -2.393  0.7079E+03  0.1157E+04
     -2.297  0.8374E+03  0.1238E+04
     -2.200  0.9072E+03  0.1326E+04
     -2.103  0.7843E+03  0.1402E+04
     -2.007  0.9509E+03  0.1493E+04
     -1.910  0.7050E+03  0.1562E+04
     -1.813  0.5672E+03  0.1616E+04
     -1.717  0.5847E+03  0.1673E+04
     -1.620  0.5337E+03  0.1725E+04
     -1.523  0.5477E+03  0.1778E+04
     -1.427  0.8112E+03  0.1856E+04
     -1.330  0.7770E+03  0.1931E+04
     -1.233  0.4994E+03  0.1979E+04
     -1.136  0.6727E+03  0.2044E+04
     -1.040  0.7589E+03  0.2118E+04
     -0.943  0.8906E+03  0.2204E+04
     -0.846  0.6514E+03  0.2267E+04
     -0.750  0.8000E+03  0.2344E+04
     -0.653  0.1153E+04  0.2456E+04
     -0.556  0.1235E+04  0.2575E+04
     -0.460  0.6713E+03  0.2640E+04
     -0.363  0.2435E+03  0.2664E+04
     -0.266  0.1282E+03  0.2676E+04
     -0.170  0.1444E+03  0.2690E+04
     -0.073  0.1700E+03  0.2706E+04
      0.024  0.1254E+03  0.2719E+04
      0.120  0.2981E+02  0.2721E+04
      0.217  0.6758E+02  0.2728E+04
      0.314  0.1568E+02  0.2730E+04
      0.411  0.1400E+03  0.2743E+04
      0.507  0.8050E+02  0.2751E+04
      0.604  0.1017E+03  0.2761E+04
      0.701  0.7513E+02  0.2768E+04
      0.797  0.9134E+02  0.2777E+04
      0.894  0.1448E+03  0.2791E+04
      0.991  0.1091E+03  0.2801E+04
      1.087  0.1097E+02  0.2802E+04
      1.184  0.4500E+02  0.2807E+04
      1.281  0.1431E+03  0.2821E+04
      1.377  0.3064E+02  0.2824E+04
      1.474  0.3915E+02  0.2827E+04
      1.571  0.1085E+03  0.2838E+04
      1.667  0.9913E+02  0.2847E+04
      1.764  0.6843E+02  0.2854E+04
      1.861  0.9342E+02  0.2863E+04
      1.957  0.9333E+02  0.2872E+04
      2.054  0.3524E+02  0.2875E+04
      2.151  0.6964E+02  0.2882E+04
      2.248  0.1273E+03  0.2895E+04
      2.344  0.1039E+03  0.2905E+04
      2.441  0.2462E+02  0.2907E+04
      2.538  0.6520E+02  0.2913E+04
      2.634  0.3446E+02  0.2917E+04
      2.731  0.1411E+02  0.2918E+04
      2.828  0.3791E+02  0.2922E+04
      2.924  0.7540E+02  0.2929E+04
      3.021  0.2153E+03  0.2950E+04
      3.118  0.1324E+03  0.2963E+04
      3.214  0.3385E+02  0.2966E+04
      3.311  0.2364E+02  0.2968E+04
      3.408  0.7304E+02  0.2975E+04
      3.504  0.8336E+02  0.2983E+04
      3.601  0.2051E+02  0.2985E+04
      3.698  0.9239E+02  0.2994E+04
      3.795  0.1639E+02  0.2996E+04
      3.891  0.1741E+02  0.2997E+04
      3.988  0.1210E+02  0.2999E+04
      4.085  0.4276E+02  0.3003E+04
      4.181  0.5902E+02  0.3008E+04
      4.278  0.4178E+02  0.3012E+04
      4.375  0.7027E+02  0.3019E+04
      4.471  0.7095E+02  0.3026E+04
      4.568  0.6621E+02  0.3032E+04
      4.665  0.5610E+02  0.3038E+04
      4.761  0.1020E+01  0.3038E+04
      4.858  0.5624E-04  0.3038E+04
      4.955  0.3367E-11  0.3038E+04
      5.051  0.0000E+00  0.3038E+04
      5.148  0.0000E+00  0.3038E+04
      5.245  0.0000E+00  0.3038E+04
      5.342  0.0000E+00  0.3038E+04
      5.438  0.0000E+00  0.3038E+04
      5.535  0.0000E+00  0.3038E+04
      5.632  0.0000E+00  0.3038E+04
      5.728  0.0000E+00  0.3038E+04
      5.825  0.0000E+00  0.3038E+04
      5.922  0.0000E+00  0.3038E+04
