       N       E                     dE             d eps       ncg     rms          rms(c)
DAV:   1     0.223352518528E+05    0.22335E+05   -0.98547E+05 12200   0.134E+03
DAV:   2     0.954263308798E+02   -0.22240E+05   -0.21251E+05 12152   0.469E+02
DAV:   3    -0.133402201008E+04   -0.14294E+04   -0.11988E+04 13504   0.131E+02
DAV:   4    -0.155926038711E+04   -0.22524E+03   -0.18819E+03 21248   0.489E+01
DAV:   5    -0.157110522458E+04   -0.11845E+02   -0.11230E+02 18960   0.117E+01    0.142E+02
DAV:   6    -0.193912653858E+04   -0.36802E+03   -0.27811E+03 15864   0.167E+02    0.288E+02
DAV:   7    -0.174721873637E+04    0.19191E+03   -0.10448E+03 13280   0.144E+02    0.238E+02
DAV:   8    -0.221889755887E+04   -0.47168E+03   -0.56566E+02 16448   0.137E+02    0.324E+02
DAV:   9    -0.177984052300E+04    0.43906E+03   -0.27385E+02 13824   0.944E+01    0.258E+02
DAV:  10    -0.168238113415E+04    0.97459E+02   -0.25724E+02 15432   0.749E+01    0.219E+02
DAV:  11    -0.151261646732E+04    0.16976E+03   -0.26197E+02 13896   0.699E+01    0.172E+02
DAV:  12    -0.156078087229E+04   -0.48164E+02   -0.45951E+02 16400   0.104E+02    0.194E+02
DAV:  13    -0.152729706648E+04    0.33484E+02   -0.23090E+02 13992   0.609E+01    0.180E+02
DAV:  14    -0.163954594148E+04   -0.11225E+03   -0.15266E+02 13184   0.818E+01    0.218E+02
DAV:  15    -0.150366143204E+04    0.13588E+03   -0.82734E+01 13568   0.513E+01    0.169E+02
DAV:  16    -0.151110122160E+04   -0.74398E+01   -0.77192E+01 12976   0.607E+01    0.188E+02
DAV:  17    -0.147077200979E+04    0.40329E+02   -0.59047E+01 13048   0.435E+01    0.171E+02
DAV:  18    -0.142792085954E+04    0.42851E+02   -0.62441E+01 12768   0.487E+01    0.154E+02
DAV:  19    -0.139148365075E+04    0.36437E+02   -0.44822E+01 12944   0.351E+01    0.133E+02
DAV:  20    -0.139362133339E+04   -0.21377E+01   -0.35472E+01 13056   0.342E+01    0.131E+02
DAV:  21    -0.135366198263E+04    0.39959E+02   -0.24449E+01 12800   0.301E+01    0.818E+01
DAV:  22    -0.133963498916E+04    0.14027E+02   -0.12884E+01 12912   0.198E+01    0.624E+01
DAV:  23    -0.133517976787E+04    0.44552E+01   -0.83612E+00 14984   0.950E+00    0.494E+01
DAV:  24    -0.133768361541E+04   -0.25038E+01   -0.48203E+00 13568   0.109E+01    0.605E+01
DAV:  25    -0.133503660530E+04    0.26470E+01   -0.40342E+00 13344   0.103E+01    0.534E+01
DAV:  26    -0.133264641797E+04    0.23902E+01   -0.23664E+00 13376   0.751E+00    0.446E+01
DAV:  27    -0.133221945186E+04    0.42697E+00   -0.17051E+00 13312   0.708E+00    0.444E+01
DAV:  28    -0.133240428925E+04   -0.18484E+00   -0.20489E+00 13344   0.847E+00    0.458E+01
DAV:  29    -0.133089211932E+04    0.15122E+01   -0.21660E+00 13360   0.908E+00    0.414E+01
DAV:  30    -0.132840786545E+04    0.24843E+01   -0.17138E+00 13360   0.845E+00    0.321E+01
DAV:  31    -0.132746555652E+04    0.94231E+00   -0.11170E+00 13328   0.578E+00    0.271E+01
DAV:  32    -0.132728415441E+04    0.18140E+00   -0.90645E-01 13344   0.468E+00    0.275E+01
DAV:  33    -0.132714059493E+04    0.14356E+00   -0.64145E-01 13344   0.427E+00    0.275E+01
DAV:  34    -0.132692619126E+04    0.21440E+00   -0.62182E-01 13344   0.426E+00    0.258E+01
DAV:  35    -0.132658990799E+04    0.33628E+00   -0.56532E-01 13360   0.386E+00    0.226E+01
DAV:  36    -0.132672366760E+04   -0.13376E+00   -0.83947E-01 13424   0.529E+00    0.242E+01
DAV:  37    -0.132859802707E+04   -0.18744E+01   -0.12484E+00 13624   0.680E+00    0.384E+01
DAV:  38    -0.132846673159E+04    0.13130E+00   -0.10255E+00 13528   0.542E+00    0.415E+01
DAV:  39    -0.132765958133E+04    0.80715E+00   -0.80980E-01 13408   0.465E+00    0.366E+01
DAV:  40    -0.132679881329E+04    0.86077E+00   -0.59364E-01 13424   0.350E+00    0.290E+01
DAV:  41    -0.132643504514E+04    0.36377E+00   -0.33860E-01 13392   0.274E+00    0.275E+01
DAV:  42    -0.132686550954E+04   -0.43046E+00   -0.65765E-01 13472   0.460E+00    0.291E+01
DAV:  43    -0.132606184289E+04    0.80367E+00   -0.66674E-01 13592   0.471E+00    0.209E+01
DAV:  44    -0.132563436931E+04    0.42747E+00   -0.36865E-01 13448   0.323E+00    0.182E+01
DAV:  45    -0.132544785222E+04    0.18652E+00   -0.26288E-01 13440   0.248E+00    0.160E+01
DAV:  46    -0.132529609991E+04    0.15175E+00   -0.25531E-01 13424   0.221E+00    0.140E+01
DAV:  47    -0.132510200446E+04    0.19410E+00   -0.13235E-01 13456   0.162E+00    0.109E+01
DAV:  48    -0.132508487116E+04    0.17133E-01   -0.95400E-02 13616   0.151E+00    0.955E+00
DAV:  49    -0.132520229060E+04   -0.11742E+00   -0.14261E-01 13728   0.201E+00    0.112E+01
DAV:  50    -0.132505835942E+04    0.14393E+00   -0.12021E-01 13672   0.173E+00    0.989E+00
DAV:  51    -0.132517138819E+04   -0.11303E+00   -0.23864E-01 21848   0.218E+00    0.103E+01
DAV:  52    -0.132508482463E+04    0.86564E-01   -0.13681E-01 15384   0.176E+00    0.784E+00
DAV:  53    -0.132512938785E+04   -0.44563E-01   -0.12076E-01 15200   0.185E+00    0.896E+00
DAV:  54    -0.132503440659E+04    0.94981E-01   -0.10387E-01 15024   0.169E+00    0.647E+00
DAV:  55    -0.132502286594E+04    0.11541E-01   -0.67982E-02 14976   0.138E+00    0.635E+00
DAV:  56    -0.132509641287E+04   -0.73547E-01   -0.99056E-02 14896   0.179E+00    0.742E+00
DAV:  57    -0.132502386696E+04    0.72546E-01   -0.75931E-02 14776   0.156E+00    0.540E+00
DAV:  58    -0.132501396535E+04    0.99016E-02   -0.52147E-02 14728   0.132E+00    0.452E+00
DAV:  59    -0.132500927440E+04    0.46909E-02   -0.45080E-02 14496   0.117E+00    0.393E+00
DAV:  60    -0.132501362949E+04   -0.43551E-02   -0.40208E-02 14496   0.116E+00    0.373E+00
DAV:  61    -0.132503167071E+04   -0.18041E-01   -0.40048E-02 14464   0.118E+00    0.464E+00
DAV:  62    -0.132501311652E+04    0.18554E-01   -0.34904E-02 14432   0.114E+00    0.353E+00
DAV:  63    -0.132500037171E+04    0.12745E-01   -0.21571E-02 14376   0.882E-01    0.285E+00
DAV:  64    -0.132499255694E+04    0.78148E-02   -0.11162E-02 14064   0.619E-01    0.255E+00
DAV:  65    -0.132498957614E+04    0.29808E-02   -0.68800E-03 13992   0.479E-01    0.183E+00
DAV:  66    -0.132500548241E+04   -0.15906E-01   -0.14646E-02 14256   0.739E-01    0.298E+00
DAV:  67    -0.132499267621E+04    0.12806E-01   -0.13419E-02 14112   0.682E-01    0.209E+00
DAV:  68    -0.132498917559E+04    0.35006E-02   -0.58837E-03 14360   0.421E-01    0.138E+00
DAV:  69    -0.132498661285E+04    0.25627E-02   -0.27985E-03 13920   0.305E-01    0.904E-01
DAV:  70    -0.132498727327E+04   -0.66043E-03   -0.18185E-03 14448   0.251E-01    0.118E+00
DAV:  71    -0.132500161407E+04   -0.14341E-01   -0.63045E-03 14832   0.493E-01    0.267E+00
DAV:  72    -0.132498922003E+04    0.12394E-01   -0.70598E-03 14200   0.460E-01    0.104E+00
DAV:  73    -0.132498800152E+04    0.12185E-02   -0.16654E-03 13952   0.235E-01    0.725E-01
DAV:  74    -0.132498864056E+04   -0.63905E-03   -0.10157E-03 13840   0.180E-01    0.611E-01
DAV:  75    -0.132498888218E+04   -0.24162E-03   -0.70699E-04 13816   0.145E-01    0.494E-01
DAV:  76    -0.132499245865E+04   -0.35765E-02   -0.14749E-03 13992   0.234E-01    0.132E+00
DAV:  77    -0.132498898723E+04    0.34714E-02   -0.14869E-03 13896   0.214E-01    0.527E-01
DAV:  78    -0.132498940617E+04   -0.41895E-03   -0.32847E-04 13800   0.106E-01    0.287E-01
DAV:  79    -0.132498974806E+04   -0.34189E-03   -0.16946E-04 13664   0.727E-02    0.190E-01
DAV:  80    -0.132499018457E+04   -0.43651E-03   -0.13322E-04 13672   0.630E-02    0.222E-01
DAV:  81    -0.132499082447E+04   -0.63989E-03   -0.37675E-04 14112   0.115E-01    0.445E-01
DAV:  82    -0.132499047081E+04    0.35366E-03   -0.33939E-04 13944   0.110E-01    0.187E-01
DAV:  83    -0.132499064963E+04   -0.17883E-03   -0.88101E-05 16624   0.430E-02    0.121E-01
DAV:  84    -0.132499117100E+04   -0.52136E-03   -0.57445E-05 14032   0.397E-02    0.162E-01
DAV:  85    -0.132499172960E+04   -0.55860E-03   -0.64457E-05 13712   0.442E-02    0.158E-01
DAV:  86    -0.132499173657E+04   -0.69728E-05   -0.11383E-04 14688   0.638E-02    0.301E-01
DAV:  87    -0.132499185356E+04   -0.11699E-03   -0.11793E-04 14072   0.623E-02    0.158E-01
DAV:  88    -0.132499220970E+04   -0.35614E-03   -0.46853E-05 12552   0.360E-02    0.159E-01
DAV:  89    -0.132499255967E+04   -0.34997E-03   -0.39894E-05 12112   0.317E-02    0.102E-01
DAV:  90    -0.132499284065E+04   -0.28098E-03   -0.31817E-05 11800   0.278E-02    0.101E-01
DAV:  91    -0.132499290050E+04   -0.59848E-04   -0.46289E-05 11680   0.363E-02    0.164E-01
DAV:  92    -0.132499309554E+04   -0.19504E-03   -0.46427E-05 12016   0.370E-02    0.105E-01
DAV:  93    -0.132499343516E+04   -0.33962E-03   -0.42483E-05 12184   0.305E-02    0.124E-01
DAV:  94    -0.132499366419E+04   -0.22903E-03   -0.34445E-05 12272   0.258E-02    0.987E-02
DAV:  95    -0.132499373118E+04   -0.66993E-04   -0.17610E-05 10000   0.203E-02    0.876E-02
DAV:  96    -0.132499369357E+04    0.37605E-04   -0.35517E-05 11016   0.350E-02    0.169E-01
DAV:  97    -0.132499382848E+04   -0.13491E-03   -0.39961E-05 11312   0.352E-02    0.766E-02
DAV:  98    -0.132499396722E+04   -0.13874E-03   -0.17606E-05 10080   0.184E-02    0.531E-02
DAV:  99    -0.132499402681E+04   -0.59593E-04   -0.11580E-05  9280   0.146E-02    0.441E-02
DAV: 100    -0.132499407396E+04   -0.47150E-04   -0.98449E-06  8408   0.137E-02    0.502E-02
DAV: 101    -0.132499408075E+04   -0.67905E-05   -0.15083E-05  7584   0.229E-02    0.974E-02
DAV: 102    -0.132499414582E+04   -0.65068E-04   -0.16530E-05  8400   0.209E-02    0.389E-02
DAV: 103    -0.132499416177E+04   -0.15954E-04   -0.72228E-06  8784   0.985E-03    0.229E-02
DAV: 104    -0.132499417386E+04   -0.12086E-04   -0.41242E-06  7376   0.773E-03    0.287E-02
DAV: 105    -0.132499419811E+04   -0.24250E-04   -0.37325E-06  7272   0.804E-03    0.339E-02
DAV: 106    -0.132499420540E+04   -0.72911E-05   -0.34085E-06  6616   0.960E-03    0.403E-02
DAV: 107    -0.132499420565E+04   -0.25309E-06   -0.26703E-06  7112   0.767E-03
   1 F= -.14223392E+04 E0= -.14215829E+04  d E =-.151268E+01
