 380 380   0   0
  0.2529357E+02  0.1718057E-08  0.1718057E-08  0.3760000E-08  0.2000000E-15
   1.0000000000000000E-004
  CAR 
 NiAl                                    
      5.41085692    -28.94544427  301      1.27597126      1.00000000
    -28.945  0.0000E+00  0.0000E+00
    -28.831  0.0000E+00  0.0000E+00
    -28.716  0.0000E+00  0.0000E+00
    -28.602  0.0000E+00  0.0000E+00
    -28.487  0.0000E+00  0.0000E+00
    -28.373  0.0000E+00  0.0000E+00
    -28.258  0.0000E+00  0.0000E+00
    -28.144  0.0000E+00  0.0000E+00
    -28.029  0.0000E+00  0.0000E+00
    -27.915  0.0000E+00  0.0000E+00
    -27.800  0.0000E+00  0.0000E+00
    -27.686  0.0000E+00  0.0000E+00
    -27.571  0.1276E-07  0.1461E-08
    -27.457  0.9985E-02  0.1143E-02
    -27.342  0.1263E+01  0.1458E+00
    -27.228  0.4730E+00  0.2000E+00
    -27.113  0.1371E-03  0.2000E+00
    -26.999  0.2581E-11  0.2000E+00
    -26.884  0.0000E+00  0.2000E+00
    -26.770  0.0000E+00  0.2000E+00
    -26.655  0.0000E+00  0.2000E+00
    -26.541  0.2178E-09  0.2000E+00
    -26.426  0.1019E-02  0.2001E+00
    -26.311  0.5603E+00  0.2643E+00
    -26.197  0.2110E+01  0.5059E+00
    -26.082  0.8192E+00  0.5997E+00
    -25.968  0.2581E-02  0.6000E+00
    -25.853  0.1856E-08  0.6000E+00
    -25.739  0.2426E-04  0.6000E+00
    -25.624  0.4300E-01  0.6049E+00
    -25.510  0.3420E+00  0.6441E+00
    -25.395  0.6843E+00  0.7225E+00
    -25.281  0.1379E+01  0.8804E+00
    -25.166  0.1602E+01  0.1064E+01
    -25.052  0.1088E+01  0.1188E+01
    -24.937  0.6739E+00  0.1266E+01
    -24.823  0.7353E+00  0.1350E+01
    -24.708  0.1294E+01  0.1498E+01
    -24.594  0.9590E+00  0.1608E+01
    -24.479  0.7610E+00  0.1695E+01
    -24.365  0.8762E+00  0.1795E+01
    -24.250  0.4015E-01  0.1800E+01
    -24.136  0.1656E-03  0.1800E+01
    -24.021  0.2215E+00  0.1825E+01
    -23.907  0.1278E+01  0.1972E+01
    -23.792  0.1582E+01  0.2153E+01
    -23.677  0.4107E+00  0.2200E+01
    -23.563  0.8747E-01  0.2210E+01
    -23.448  0.1815E+01  0.2418E+01
    -23.334  0.1513E+01  0.2591E+01
    -23.219  0.9486E+00  0.2700E+01
    -23.105  0.8747E+00  0.2800E+01
    -22.990  0.1154E-02  0.2800E+01
    -22.876  0.1092E-09  0.2800E+01
    -22.761  0.0000E+00  0.2800E+01
    -22.647  0.0000E+00  0.2800E+01
    -22.532  0.2704E-13  0.2800E+01
    -22.418  0.1033E-04  0.2800E+01
    -22.303  0.2543E+00  0.2829E+01
    -22.189  0.3044E+01  0.3178E+01
    -22.074  0.1942E+00  0.3200E+01
    -21.960  0.3983E-05  0.3200E+01
    -21.845  0.4181E-14  0.3200E+01
    -21.731  0.0000E+00  0.3200E+01
    -21.616  0.0000E+00  0.3200E+01
    -21.502  0.0000E+00  0.3200E+01
    -21.387  0.0000E+00  0.3200E+01
    -21.273  0.0000E+00  0.3200E+01
    -21.158  0.0000E+00  0.3200E+01
    -21.043  0.0000E+00  0.3200E+01
    -20.929  0.0000E+00  0.3200E+01
    -20.814  0.0000E+00  0.3200E+01
    -20.700  0.0000E+00  0.3200E+01
    -20.585  0.0000E+00  0.3200E+01
    -20.471  0.0000E+00  0.3200E+01
    -20.356  0.0000E+00  0.3200E+01
    -20.242  0.0000E+00  0.3200E+01
    -20.127  0.0000E+00  0.3200E+01
    -20.013  0.0000E+00  0.3200E+01
    -19.898  0.0000E+00  0.3200E+01
    -19.784  0.0000E+00  0.3200E+01
    -19.669  0.0000E+00  0.3200E+01
    -19.555  0.0000E+00  0.3200E+01
    -19.440  0.0000E+00  0.3200E+01
    -19.326  0.0000E+00  0.3200E+01
    -19.211  0.0000E+00  0.3200E+01
    -19.097  0.0000E+00  0.3200E+01
    -18.982  0.0000E+00  0.3200E+01
    -18.868  0.0000E+00  0.3200E+01
    -18.753  0.0000E+00  0.3200E+01
    -18.639  0.0000E+00  0.3200E+01
    -18.524  0.0000E+00  0.3200E+01
    -18.410  0.0000E+00  0.3200E+01
    -18.295  0.0000E+00  0.3200E+01
    -18.180  0.0000E+00  0.3200E+01
    -18.066  0.0000E+00  0.3200E+01
    -17.951  0.0000E+00  0.3200E+01
    -17.837  0.0000E+00  0.3200E+01
    -17.722  0.0000E+00  0.3200E+01
    -17.608  0.0000E+00  0.3200E+01
    -17.493  0.0000E+00  0.3200E+01
    -17.379  0.0000E+00  0.3200E+01
    -17.264  0.1226E-08  0.3200E+01
    -17.150  0.2328E-02  0.3200E+01
    -17.035  0.8955E+00  0.3303E+01
    -16.921  0.8472E+00  0.3400E+01
    -16.806  0.1434E-02  0.3400E+01
    -16.692  0.2154E-09  0.3400E+01
    -16.577  0.2298E-04  0.3400E+01
    -16.463  0.1696E+00  0.3419E+01
    -16.348  0.1456E+01  0.3586E+01
    -16.234  0.1284E+00  0.3601E+01
    -16.119  0.6247E+00  0.3672E+01
    -16.005  0.7720E+00  0.3761E+01
    -15.890  0.1635E+01  0.3948E+01
    -15.776  0.4603E+00  0.4001E+01
    -15.661  0.7981E+00  0.4092E+01
    -15.546  0.2073E+01  0.4330E+01
    -15.432  0.2024E+01  0.4561E+01
    -15.317  0.3369E+00  0.4600E+01
    -15.203  0.6681E+00  0.4677E+01
    -15.088  0.9397E+00  0.4784E+01
    -14.974  0.7230E+00  0.4867E+01
    -14.859  0.1004E+01  0.4982E+01
    -14.745  0.7234E+00  0.5065E+01
    -14.630  0.2285E+00  0.5091E+01
    -14.516  0.8253E+00  0.5185E+01
    -14.401  0.1511E+00  0.5203E+01
    -14.287  0.7773E+00  0.5292E+01
    -14.172  0.1859E+00  0.5313E+01
    -14.058  0.9510E+00  0.5422E+01
    -13.943  0.6983E+00  0.5502E+01
    -13.829  0.5799E+00  0.5568E+01
    -13.714  0.9745E+00  0.5680E+01
    -13.600  0.1180E+01  0.5815E+01
    -13.485  0.1310E+01  0.5965E+01
    -13.371  0.3052E+00  0.6000E+01
    -13.256  0.2096E+00  0.6024E+01
    -13.142  0.1531E+01  0.6199E+01
    -13.027  0.1540E+01  0.6376E+01
    -12.913  0.2117E+00  0.6400E+01
    -12.798  0.3802E-04  0.6400E+01
    -12.683  0.4930E-12  0.6400E+01
    -12.569  0.0000E+00  0.6400E+01
    -12.454  0.0000E+00  0.6400E+01
    -12.340  0.0000E+00  0.6400E+01
    -12.225  0.0000E+00  0.6400E+01
    -12.111  0.0000E+00  0.6400E+01
    -11.996  0.0000E+00  0.6400E+01
    -11.882  0.0000E+00  0.6400E+01
    -11.767  0.0000E+00  0.6400E+01
    -11.653  0.0000E+00  0.6400E+01
    -11.538  0.0000E+00  0.6400E+01
    -11.424  0.0000E+00  0.6400E+01
    -11.309  0.0000E+00  0.6400E+01
    -11.195  0.0000E+00  0.6400E+01
    -11.080  0.0000E+00  0.6400E+01
    -10.966  0.0000E+00  0.6400E+01
    -10.851  0.0000E+00  0.6400E+01
    -10.737  0.0000E+00  0.6400E+01
    -10.622  0.0000E+00  0.6400E+01
    -10.508  0.0000E+00  0.6400E+01
    -10.393  0.2727E-15  0.6400E+01
    -10.279  0.2460E-06  0.6400E+01
    -10.164  0.9946E-02  0.6401E+01
    -10.049  0.1766E+00  0.6421E+01
     -9.935  0.6889E+00  0.6500E+01
     -9.820  0.8420E+00  0.6597E+01
     -9.706  0.1520E+01  0.6771E+01
     -9.591  0.1153E+01  0.6903E+01
     -9.477  0.1625E+01  0.7089E+01
     -9.362  0.2178E+01  0.7338E+01
     -9.248  0.1741E+01  0.7538E+01
     -9.133  0.1987E+01  0.7765E+01
     -9.019  0.1669E+01  0.7956E+01
     -8.904  0.2661E+01  0.8261E+01
     -8.790  0.2840E+01  0.8586E+01
     -8.675  0.1877E+01  0.8801E+01
     -8.561  0.2480E+01  0.9085E+01
     -8.446  0.3215E+01  0.9454E+01
     -8.332  0.2314E+01  0.9719E+01
     -8.217  0.3308E+01  0.1010E+02
     -8.103  0.3208E+01  0.1046E+02
     -7.988  0.1799E+01  0.1067E+02
     -7.874  0.2165E+01  0.1092E+02
     -7.759  0.6003E+00  0.1099E+02
     -7.645  0.5719E+00  0.1105E+02
     -7.530  0.1326E+01  0.1120E+02
     -7.415  0.1745E+01  0.1140E+02
     -7.301  0.1732E+01  0.1160E+02
     -7.186  0.2102E+01  0.1184E+02
     -7.072  0.2013E+01  0.1207E+02
     -6.957  0.1382E+01  0.1223E+02
     -6.843  0.3364E+01  0.1262E+02
     -6.728  0.3222E+01  0.1299E+02
     -6.614  0.3608E+01  0.1340E+02
     -6.499  0.5177E+01  0.1399E+02
     -6.385  0.2699E+01  0.1430E+02
     -6.270  0.2927E+01  0.1464E+02
     -6.156  0.2710E+01  0.1495E+02
     -6.041  0.3805E+01  0.1538E+02
     -5.927  0.2873E+01  0.1571E+02
     -5.812  0.2647E+01  0.1602E+02
     -5.698  0.1529E+01  0.1619E+02
     -5.583  0.4152E+01  0.1667E+02
     -5.469  0.3446E+01  0.1706E+02
     -5.354  0.2819E+01  0.1738E+02
     -5.240  0.2386E+01  0.1766E+02
     -5.125  0.2402E+01  0.1793E+02
     -5.011  0.3010E+01  0.1828E+02
     -4.896  0.3071E+01  0.1863E+02
     -4.782  0.3303E+01  0.1901E+02
     -4.667  0.1610E+01  0.1919E+02
     -4.552  0.2707E+01  0.1950E+02
     -4.438  0.2250E+01  0.1976E+02
     -4.323  0.2857E+01  0.2009E+02
     -4.209  0.3273E+01  0.2046E+02
     -4.094  0.3172E+01  0.2082E+02
     -3.980  0.2684E+01  0.2113E+02
     -3.865  0.1477E+01  0.2130E+02
     -3.751  0.2447E+01  0.2158E+02
     -3.636  0.3740E+01  0.2201E+02
     -3.522  0.3026E+01  0.2236E+02
     -3.407  0.3258E+01  0.2273E+02
     -3.293  0.3676E+01  0.2315E+02
     -3.178  0.1865E+01  0.2336E+02
     -3.064  0.4064E+01  0.2383E+02
     -2.949  0.3743E+01  0.2426E+02
     -2.835  0.2714E+01  0.2457E+02
     -2.720  0.2569E+01  0.2486E+02
     -2.606  0.3186E+01  0.2523E+02
     -2.491  0.2632E+01  0.2553E+02
     -2.377  0.3210E+01  0.2590E+02
     -2.262  0.3057E+01  0.2625E+02
     -2.148  0.3820E+01  0.2668E+02
     -2.033  0.3752E+01  0.2711E+02
     -1.918  0.2305E+01  0.2738E+02
     -1.804  0.4182E+01  0.2786E+02
     -1.689  0.2499E+01  0.2814E+02
     -1.575  0.3929E+01  0.2859E+02
     -1.460  0.3416E+01  0.2898E+02
     -1.346  0.2575E+01  0.2928E+02
     -1.231  0.2347E+01  0.2955E+02
     -1.117  0.3776E+01  0.2998E+02
     -1.002  0.3839E+01  0.3042E+02
     -0.888  0.4177E+01  0.3090E+02
     -0.773  0.3608E+01  0.3131E+02
     -0.659  0.3052E+01  0.3166E+02
     -0.544  0.3319E+01  0.3204E+02
     -0.430  0.3070E+01  0.3239E+02
     -0.315  0.2335E+01  0.3266E+02
     -0.201  0.4078E+01  0.3313E+02
     -0.086  0.2107E+01  0.3337E+02
      0.028  0.2592E+01  0.3366E+02
      0.143  0.2485E+01  0.3395E+02
      0.257  0.3302E+01  0.3433E+02
      0.372  0.3022E+01  0.3467E+02
      0.486  0.3102E+01  0.3503E+02
      0.601  0.5439E+01  0.3565E+02
      0.715  0.4463E+01  0.3616E+02
      0.830  0.3456E+01  0.3656E+02
      0.945  0.3800E+01  0.3699E+02
      1.059  0.4005E+01  0.3745E+02
      1.174  0.2965E+01  0.3779E+02
      1.288  0.3141E+01  0.3815E+02
      1.403  0.4712E+01  0.3869E+02
      1.517  0.4375E+01  0.3919E+02
      1.632  0.4309E+01  0.3969E+02
      1.746  0.2650E+01  0.3999E+02
      1.861  0.3200E+01  0.4036E+02
      1.975  0.4804E+01  0.4091E+02
      2.090  0.4633E+01  0.4144E+02
      2.204  0.4392E+01  0.4194E+02
      2.319  0.3120E+01  0.4230E+02
      2.433  0.3517E+01  0.4270E+02
      2.548  0.4325E+01  0.4319E+02
      2.662  0.3682E+01  0.4362E+02
      2.777  0.4420E+01  0.4412E+02
      2.891  0.4969E+01  0.4469E+02
      3.006  0.4948E+01  0.4526E+02
      3.120  0.2039E+01  0.4549E+02
      3.235  0.2902E+01  0.4582E+02
      3.349  0.2435E+01  0.4610E+02
      3.464  0.3508E+01  0.4650E+02
      3.579  0.3290E+01  0.4688E+02
      3.693  0.3120E+01  0.4724E+02
      3.808  0.2162E+01  0.4749E+02
      3.922  0.1413E+01  0.4765E+02
      4.037  0.2083E-01  0.4765E+02
      4.151  0.5277E-07  0.4765E+02
      4.266  0.0000E+00  0.4765E+02
      4.380  0.0000E+00  0.4765E+02
      4.495  0.0000E+00  0.4765E+02
      4.609  0.0000E+00  0.4765E+02
      4.724  0.0000E+00  0.4765E+02
      4.838  0.0000E+00  0.4765E+02
      4.953  0.0000E+00  0.4765E+02
      5.067  0.0000E+00  0.4765E+02
      5.182  0.0000E+00  0.4765E+02
      5.296  0.0000E+00  0.4765E+02
      5.411  0.0000E+00  0.4765E+02
