       N       E                     dE             d eps       ncg     rms          rms(c)
DAV:   1     0.112968132979E+05    0.11297E+05   -0.49294E+05  3876   0.982E+02
DAV:   2     0.966643172338E+03   -0.10330E+05   -0.97349E+04  5528   0.284E+02
DAV:   3    -0.119255174642E+04   -0.21592E+04   -0.19919E+04  5440   0.120E+02
DAV:   4    -0.144180386661E+04   -0.24925E+03   -0.22150E+03  5792   0.407E+01
DAV:   5    -0.146743766513E+04   -0.25634E+02   -0.17886E+02  5888   0.911E+00    0.386E+02
DAV:   6    -0.178091517197E+04   -0.31348E+03   -0.17038E+03  6568   0.469E+01    0.298E+02
DAV:   7    -0.189870641080E+05   -0.17206E+05   -0.13623E+05  6308   0.191E+02    0.415E+02
DAV:   8    -0.616895030820E+03    0.18370E+05   -0.11510E+05  5840   0.203E+02    0.349E+02
DAV:   9    -0.272306961635E+04   -0.21062E+04   -0.27887E+04  6056   0.140E+02    0.158E+02
DAV:  10    -0.142140733223E+04    0.13017E+04   -0.97206E+03  5871   0.703E+01    0.836E+01
DAV:  11    -0.144245997097E+04   -0.21053E+02   -0.25895E+03  5456   0.457E+01    0.655E+01
DAV:  12    -0.142594304669E+04    0.16517E+02   -0.24106E+02  5392   0.204E+01    0.562E+01
DAV:  13    -0.142006337625E+04    0.58797E+01   -0.48788E+01  4872   0.766E+00    0.463E+01
DAV:  14    -0.142069886944E+04   -0.63549E+00   -0.66220E+00  6368   0.235E+00    0.461E+01
DAV:  15    -0.141787601931E+04    0.28229E+01   -0.17752E+00  5096   0.158E+00    0.393E+01
DAV:  16    -0.141035756768E+04    0.75185E+01   -0.47018E+00  5016   0.432E+00    0.277E+01
DAV:  17    -0.140535073763E+04    0.50068E+01   -0.76827E+00  4720   0.439E+00    0.194E+01
DAV:  18    -0.140358345928E+04    0.17673E+01   -0.32877E+00  4856   0.212E+00    0.165E+01
DAV:  19    -0.140343833398E+04    0.14513E+00   -0.53156E-01  5072   0.113E+00    0.155E+01
DAV:  20    -0.140300392664E+04    0.43441E+00   -0.27064E-01  5520   0.909E-01    0.131E+01
DAV:  21    -0.140231142150E+04    0.69251E+00   -0.94835E-01  5304   0.146E+00    0.978E+00
DAV:  22    -0.140222719105E+04    0.84230E-01   -0.22139E-01  5024   0.549E-01    0.882E+00
DAV:  23    -0.140225806713E+04   -0.30876E-01   -0.33600E-02  4848   0.263E-01    0.821E+00
DAV:  24    -0.140226146583E+04   -0.33987E-02   -0.20991E-02  4920   0.242E-01    0.742E+00
DAV:  25    -0.140219216642E+04    0.69299E-01   -0.22694E-02  5088   0.247E-01    0.646E+00
DAV:  26    -0.140216260177E+04    0.29565E-01   -0.17160E-02  4624   0.176E-01    0.563E+00
DAV:  27    -0.140214489687E+04    0.17705E-01   -0.90485E-03  4672   0.120E-01    0.485E+00
DAV:  28    -0.140210115737E+04    0.43739E-01   -0.41981E-02  4936   0.278E-01    0.306E+00
DAV:  29    -0.140207126752E+04    0.29890E-01   -0.26908E-02  5072   0.227E-01    0.180E+00
DAV:  30    -0.140206945626E+04    0.18113E-02   -0.10875E-02  4376   0.122E-01    0.116E+00
DAV:  31    -0.140206438736E+04    0.50689E-02   -0.40048E-03  5496   0.950E-02    0.753E-01
DAV:  32    -0.140206776676E+04   -0.33794E-02   -0.25252E-03  4312   0.573E-02    0.482E-01
DAV:  33    -0.140206882446E+04   -0.10577E-02   -0.11141E-03  5128   0.493E-02    0.251E-01
DAV:  34    -0.140207022093E+04   -0.13965E-02   -0.50780E-04  4712   0.229E-02    0.172E-01
DAV:  35    -0.140207089905E+04   -0.67812E-03   -0.16046E-04  4688   0.142E-02    0.100E-01
DAV:  36    -0.140207134170E+04   -0.44266E-03   -0.12454E-04  4376   0.125E-02    0.126E-01
DAV:  37    -0.140207151024E+04   -0.16853E-03   -0.73990E-05  4640   0.108E-02    0.794E-02
DAV:  38    -0.140207158550E+04   -0.75268E-04   -0.10526E-05  2592   0.447E-03    0.715E-02
DAV:  39    -0.140207165773E+04   -0.72228E-04   -0.13647E-05  2952   0.431E-03    0.631E-02
DAV:  40    -0.140207169819E+04   -0.40461E-04   -0.28739E-06  2240   0.218E-03    0.623E-02
DAV:  41    -0.140207174252E+04   -0.44329E-04   -0.22935E-06  2360   0.143E-03    0.623E-02
DAV:  42    -0.140207175655E+04   -0.14024E-04   -0.90936E-07  2192   0.114E-03    0.617E-02
DAV:  43    -0.140207175436E+04    0.21823E-05   -0.43137E-07  2088   0.911E-04
   1 F= -.14931410E+04 E0= -.14930498E+04  d E =-.149314E+04
       N       E                     dE             d eps       ncg     rms          rms(c)
DAV:   1    -0.137373501817E+04    0.28337E+02   -0.14289E+04  3952   0.158E+02    0.106E+02
DAV:   2    -0.156900976821E+04   -0.19527E+03   -0.89323E+02  5375   0.461E+01    0.149E+02
DAV:   3    -0.172876100498E+04   -0.15975E+03   -0.17369E+02  5004   0.438E+01    0.126E+02
DAV:   4    -0.169172334721E+04    0.37038E+02   -0.24374E+02  6126   0.426E+01    0.152E+02
DAV:   5    -0.172727050200E+04   -0.35547E+02   -0.34847E+02  6199   0.247E+01    0.130E+02
DAV:   6    -0.157872502142E+04    0.14855E+03   -0.57512E+02  6366   0.416E+01    0.878E+01
DAV:   7    -0.145064969270E+04    0.12808E+03   -0.37495E+02  5935   0.312E+01    0.289E+01
DAV:   8    -0.143151280611E+04    0.19137E+02   -0.11070E+02  5288   0.155E+01    0.278E+01
DAV:   9    -0.142710145425E+04    0.44114E+01   -0.22834E+01  4968   0.651E+00    0.236E+01
DAV:  10    -0.142767793727E+04   -0.57648E+00   -0.49338E+00  5640   0.297E+00    0.202E+01
DAV:  11    -0.142476125184E+04    0.29167E+01   -0.38173E+00  5584   0.352E+00    0.993E+00
DAV:  12    -0.142435648514E+04    0.40477E+00   -0.31803E+00  5368   0.284E+00    0.542E+00
DAV:  13    -0.142427540930E+04    0.81076E-01   -0.69731E-01  5512   0.149E+00    0.441E+00
DAV:  14    -0.142420416227E+04    0.71247E-01   -0.15718E-01  5632   0.103E+00    0.335E+00
DAV:  15    -0.142415188119E+04    0.52281E-01   -0.10725E-01  5584   0.715E-01    0.187E+00
DAV:  16    -0.142413362126E+04    0.18260E-01   -0.10603E-01  5184   0.484E-01    0.796E-01
DAV:  17    -0.142412820844E+04    0.54128E-02   -0.29872E-02  5128   0.236E-01    0.454E-01
DAV:  18    -0.142412864167E+04   -0.43323E-03   -0.53966E-03  5352   0.909E-02    0.343E-01
DAV:  19    -0.142412868101E+04   -0.39333E-04   -0.14773E-03  5416   0.678E-02    0.143E-01
DAV:  20    -0.142412916689E+04   -0.48588E-03   -0.79590E-04  5088   0.422E-02    0.101E-01
DAV:  21    -0.142412947662E+04   -0.30974E-03   -0.26669E-04  5256   0.209E-02    0.798E-02
DAV:  22    -0.142412988884E+04   -0.41221E-03   -0.98751E-05  4896   0.135E-02    0.684E-02
DAV:  23    -0.142413044297E+04   -0.55413E-03   -0.61217E-05  4432   0.953E-03    0.619E-02
DAV:  24    -0.142413092942E+04   -0.48645E-03   -0.35461E-05  4040   0.676E-03    0.606E-02
DAV:  25    -0.142413138582E+04   -0.45640E-03   -0.19868E-05  3272   0.505E-03    0.602E-02
DAV:  26    -0.142413178414E+04   -0.39832E-03   -0.27426E-05  3454   0.396E-03    0.602E-02
DAV:  27    -0.142413201518E+04   -0.23105E-03   -0.91279E-06  2928   0.425E-03    0.594E-02
DAV:  28    -0.142413213738E+04   -0.12220E-03   -0.39964E-06  2656   0.223E-03    0.593E-02
DAV:  29    -0.142413222460E+04   -0.87219E-04   -0.17210E-06  2520   0.139E-03    0.592E-02
DAV:  30    -0.142413227203E+04   -0.47429E-04   -0.77290E-07  2432   0.121E-03    0.592E-02
DAV:  31    -0.142413230384E+04   -0.31807E-04   -0.45962E-07  2400   0.735E-04    0.591E-02
DAV:  32    -0.142413232513E+04   -0.21287E-04   -0.30338E-07  2328   0.602E-04    0.591E-02
DAV:  33    -0.142413233528E+04   -0.10153E-04   -0.15272E-07  2272   0.503E-04    0.591E-02
DAV:  34    -0.142413234131E+04   -0.60300E-05   -0.89621E-08  2272   0.291E-04    0.591E-02
DAV:  35    -0.142413234649E+04   -0.51819E-05   -0.60268E-08  2200   0.222E-04    0.591E-02
DAV:  36    -0.142413234941E+04   -0.29161E-05   -0.39552E-08  2200   0.157E-04
   2 F= -.15151413E+04 E0= -.15150799E+04  d E =-.220003E+02
       N       E                     dE             d eps       ncg     rms          rms(c)
DAV:   1    -0.142830555106E+04   -0.41732E+01   -0.29640E+03  3828   0.760E+01    0.802E+01
DAV:   2    -0.148032477172E+04   -0.52019E+02   -0.16122E+02  5528   0.211E+01    0.585E+01
DAV:   3    -0.248808354368E+04   -0.10078E+04   -0.12555E+03  5781   0.526E+01    0.145E+02
DAV:   4    -0.144119819773E+04    0.10469E+04   -0.90503E+02  5919   0.526E+01    0.445E+01
DAV:   5    -0.144729187975E+04   -0.60937E+01   -0.47935E+02  5392   0.240E+01    0.259E+01
DAV:   6    -0.145056357521E+04   -0.32717E+01   -0.80553E+01  5704   0.123E+01    0.182E+01
DAV:   7    -0.143889947858E+04    0.11664E+02   -0.44574E+01  5792   0.894E+00    0.955E+00
DAV:   8    -0.143810170945E+04    0.79777E+00   -0.90104E+00  5168   0.424E+00    0.660E+00
DAV:   9    -0.143802269508E+04    0.79014E-01   -0.17716E+00  5344   0.195E+00    0.564E+00
DAV:  10    -0.143797164099E+04    0.51054E-01   -0.38982E-01  5856   0.113E+00    0.427E+00
DAV:  11    -0.143797451692E+04   -0.28759E-02   -0.28285E-01  5512   0.121E+00    0.290E+00
DAV:  12    -0.143789935097E+04    0.75166E-01   -0.21764E-01  5408   0.106E+00    0.249E+00
DAV:  13    -0.143786424083E+04    0.35110E-01   -0.65025E-02  5224   0.478E-01    0.206E+00
DAV:  14    -0.143786282496E+04    0.14159E-02   -0.19967E-02  5128   0.159E-01    0.196E+00
DAV:  15    -0.143786672307E+04   -0.38981E-02   -0.27268E-03  6080   0.704E-02    0.199E+00
DAV:  16    -0.143784213858E+04    0.24584E-01   -0.18754E-02  4832   0.240E-01    0.122E+00
DAV:  17    -0.143783683127E+04    0.53073E-02   -0.29562E-02  5256   0.244E-01    0.623E-01
DAV:  18    -0.143783481128E+04    0.20200E-02   -0.49554E-03  4896   0.924E-02    0.371E-01
DAV:  19    -0.143783397299E+04    0.83829E-03   -0.16156E-03  5592   0.546E-02    0.228E-01
DAV:  20    -0.143783361595E+04    0.35704E-03   -0.49012E-04  5360   0.395E-02    0.148E-01
DAV:  21    -0.143783319503E+04    0.42092E-03   -0.80391E-04  5432   0.388E-02    0.706E-02
DAV:  22    -0.143783319536E+04   -0.32631E-06   -0.19353E-04  4664   0.152E-02    0.638E-02
DAV:  23    -0.143783320976E+04   -0.14404E-04   -0.18023E-05  3512   0.649E-03    0.651E-02
DAV:  24    -0.143783321644E+04   -0.66801E-05   -0.70384E-06  2808   0.423E-03    0.618E-02
DAV:  25    -0.143783321310E+04    0.33395E-05   -0.55710E-06  2744   0.380E-03
   3 F= -.15288857E+04 E0= -.15288224E+04  d E =-.357446E+02
       N       E                     dE             d eps       ncg     rms          rms(c)
DAV:   1    -0.144261901755E+04   -0.47858E+01   -0.15501E+03  3928   0.521E+01    0.366E+01
DAV:   2    -0.146522653700E+04   -0.22608E+02   -0.75999E+01  5592   0.130E+01    0.391E+01
DAV:   3    -0.155869632752E+04   -0.93470E+02   -0.50497E+01  5631   0.191E+01    0.553E+01
DAV:   4    -0.147241290402E+04    0.86283E+02   -0.10068E+02  6135   0.193E+01    0.195E+01
DAV:   5    -0.146209170005E+04    0.10321E+02   -0.73674E+01  6191   0.139E+01    0.137E+01
DAV:   6    -0.145059439352E+04    0.11497E+02   -0.45066E+01  5560   0.907E+00    0.105E+01
DAV:   7    -0.144754244786E+04    0.30519E+01   -0.71727E+00  5216   0.446E+00    0.458E+00
DAV:   8    -0.144750192546E+04    0.40522E-01   -0.13680E+00  4960   0.220E+00    0.401E+00
DAV:   9    -0.144750334361E+04   -0.14181E-02   -0.38092E-01  5656   0.942E-01    0.336E+00
DAV:  10    -0.144749608637E+04    0.72572E-02   -0.73317E-02  5520   0.486E-01    0.271E+00
DAV:  11    -0.144751103960E+04   -0.14953E-01   -0.13656E-01  5880   0.586E-01    0.129E+00
DAV:  12    -0.144749610934E+04    0.14930E-01   -0.34686E-02  5864   0.527E-01    0.963E-01
DAV:  13    -0.144748713997E+04    0.89694E-02   -0.15629E-02  5648   0.261E-01    0.626E-01
DAV:  14    -0.144748594173E+04    0.11982E-02   -0.38633E-03  5256   0.855E-02    0.465E-01
DAV:  15    -0.144748434034E+04    0.16014E-02   -0.17629E-03  5808   0.757E-02    0.258E-01
DAV:  16    -0.144748387772E+04    0.46262E-03   -0.26250E-03  4648   0.644E-02    0.931E-02
DAV:  17    -0.144748396802E+04   -0.90301E-04   -0.45011E-04  4840   0.267E-02    0.751E-02
DAV:  18    -0.144748394943E+04    0.18587E-04   -0.13697E-04  5544   0.136E-02    0.702E-02
DAV:  19    -0.144748391485E+04    0.34587E-04   -0.27131E-05  4072   0.929E-03    0.622E-02
DAV:  20    -0.144748386379E+04    0.51055E-04   -0.19073E-05  3376   0.822E-03    0.578E-02
DAV:  21    -0.144748384798E+04    0.15815E-04   -0.61571E-06  2768   0.373E-03    0.573E-02
DAV:  22    -0.144748379940E+04    0.48577E-04   -0.35529E-06  2568   0.254E-03    0.571E-02
DAV:  23    -0.144748376874E+04    0.30667E-04   -0.16219E-06  2480   0.163E-03    0.571E-02
DAV:  24    -0.144748372300E+04    0.45732E-04   -0.12536E-06  2504   0.109E-03    0.571E-02
DAV:  25    -0.144748367818E+04    0.44823E-04   -0.12443E-06  2488   0.103E-03    0.571E-02
DAV:  26    -0.144748364956E+04    0.28615E-04   -0.52557E-07  2352   0.796E-04    0.571E-02
DAV:  27    -0.144748364105E+04    0.85183E-05   -0.26597E-07  2272   0.548E-04    0.571E-02
DAV:  28    -0.144748363383E+04    0.72157E-05   -0.15796E-07  2248   0.409E-04    0.570E-02
DAV:  29    -0.144748363199E+04    0.18394E-05   -0.97237E-08  2248   0.286E-04
   4 F= -.15385264E+04 E0= -.15384528E+04  d E =-.964077E+01
       N       E                     dE             d eps       ncg     rms          rms(c)
DAV:   1    -0.144750801330E+04   -0.24379E-01   -0.13651E+01  3920   0.490E+00    0.386E+00
DAV:   2    -0.144773986078E+04   -0.23185E+00   -0.84624E-01  5648   0.118E+00    0.332E+00
DAV:   3    -0.144944538207E+04   -0.17055E+01   -0.93166E-01  5568   0.252E+00    0.714E+00
DAV:   4    -0.144772547170E+04    0.17199E+01   -0.45238E-01  6296   0.245E+00    0.264E+00
DAV:   5    -0.144758341498E+04    0.14206E+00   -0.21219E-01  6120   0.125E+00    0.111E+00
DAV:   6    -0.144755860200E+04    0.24813E-01   -0.86983E-02  5448   0.637E-01    0.683E-01
DAV:   7    -0.144754586665E+04    0.12735E-01   -0.21284E-02  5024   0.335E-01    0.469E-01
DAV:   8    -0.144754382213E+04    0.20445E-02   -0.60272E-03  5048   0.186E-01    0.243E-01
DAV:   9    -0.144754323198E+04    0.59015E-03   -0.15463E-03  5256   0.972E-02    0.141E-01
DAV:  10    -0.144754308623E+04    0.14576E-03   -0.51639E-04  5600   0.485E-02    0.821E-02
DAV:  11    -0.144754306280E+04    0.23422E-04   -0.14894E-04  5656   0.265E-02    0.649E-02
DAV:  12    -0.144754305766E+04    0.51435E-05   -0.42731E-05  4816   0.149E-02    0.613E-02
DAV:  13    -0.144754305013E+04    0.75328E-05   -0.87674E-06  2808   0.842E-03    0.583E-02
DAV:  14    -0.144754304548E+04    0.46507E-05   -0.39958E-06  2424   0.372E-03
   5 F= -.15385847E+04 E0= -.15385108E+04  d E =-.969900E+01
       N       E                     dE             d eps       ncg     rms          rms(c)
DAV:   1    -0.144802413640E+04   -0.48109E+00   -0.48079E+02  3928   0.292E+01    0.287E+01
DAV:   2    -0.146843106787E+04   -0.20407E+02   -0.40961E+01  5920   0.980E+00    0.379E+01
DAV:   3    -0.150067457894E+04   -0.32244E+02   -0.37438E+01  5495   0.150E+01    0.374E+01
DAV:   4    -0.148113092106E+04    0.19544E+02   -0.40614E+01  6167   0.178E+01    0.237E+01
DAV:   5    -0.145513169687E+04    0.25999E+02   -0.33751E+01  6096   0.118E+01    0.120E+01
DAV:   6    -0.145018509511E+04    0.49466E+01   -0.25245E+01  5672   0.654E+00    0.715E+00
DAV:   7    -0.144928926366E+04    0.89583E+00   -0.38664E+00  4712   0.254E+00    0.358E+00
DAV:   8    -0.144930346742E+04   -0.14204E-01   -0.46202E-01  4840   0.102E+00    0.314E+00
DAV:   9    -0.144931262263E+04   -0.91552E-02   -0.91396E-02  5856   0.423E-01    0.292E+00
DAV:  10    -0.144929798660E+04    0.14636E-01   -0.17934E-02  5808   0.320E-01    0.232E+00
DAV:  11    -0.144929142111E+04    0.65655E-02   -0.58991E-02  5552   0.486E-01    0.109E+00
DAV:  12    -0.144928974844E+04    0.16727E-02   -0.36895E-02  5384   0.373E-01    0.828E-01
DAV:  13    -0.144928355871E+04    0.61897E-02   -0.97392E-03  4928   0.143E-01    0.557E-01
DAV:  14    -0.144928427197E+04   -0.71327E-03   -0.18119E-03  5344   0.402E-02    0.486E-01
DAV:  15    -0.144928397457E+04    0.29740E-03   -0.25741E-04  6240   0.200E-02    0.454E-01
DAV:  16    -0.144928353389E+04    0.44068E-03   -0.56716E-04  5304   0.373E-02    0.417E-01
DAV:  17    -0.144928279597E+04    0.73792E-03   -0.18670E-03  5160   0.530E-02    0.307E-01
DAV:  18    -0.144928295385E+04   -0.15788E-03   -0.33417E-04  4896   0.227E-02    0.235E-01
DAV:  19    -0.144928293172E+04    0.22132E-04   -0.55278E-05  4848   0.884E-03    0.209E-01
DAV:  20    -0.144928290624E+04    0.25482E-04   -0.11407E-05  2728   0.485E-03    0.188E-01
DAV:  21    -0.144928278856E+04    0.11768E-03   -0.12696E-04  5320   0.152E-02    0.112E-01
DAV:  22    -0.144928277449E+04    0.14069E-04   -0.25316E-05  3976   0.608E-03    0.984E-02
DAV:  23    -0.144928272858E+04    0.45909E-04   -0.14219E-05  3136   0.657E-03    0.758E-02
DAV:  24    -0.144928269064E+04    0.37943E-04   -0.17535E-05  3280   0.567E-03    0.617E-02
DAV:  25    -0.144928265681E+04    0.33828E-04   -0.64996E-06  2440   0.342E-03    0.562E-02
DAV:  26    -0.144928263136E+04    0.25447E-04   -0.32438E-06  2304   0.238E-03    0.547E-02
DAV:  27    -0.144928261561E+04    0.15748E-04   -0.16435E-06  2232   0.163E-03    0.543E-02
DAV:  28    -0.144928259486E+04    0.20757E-04   -0.11360E-06  2240   0.134E-03    0.543E-02
DAV:  29    -0.144928257799E+04    0.16864E-04   -0.61720E-07  2200   0.954E-04    0.543E-02
DAV:  30    -0.144928256795E+04    0.10044E-04   -0.32035E-07  2200   0.653E-04    0.543E-02
DAV:  31    -0.144928255917E+04    0.87781E-05   -0.18870E-07  2200   0.476E-04    0.543E-02
DAV:  32    -0.144928255547E+04    0.37034E-05   -0.10424E-07  2176   0.439E-04
   6 F= -.15403197E+04 E0= -.15402309E+04  d E =-.173500E+01
       N       E                     dE             d eps       ncg     rms          rms(c)
DAV:   1    -0.144930432471E+04   -0.21766E-01   -0.94373E+00  3936   0.407E+00    0.381E+00
DAV:   2    -0.144948897929E+04   -0.18465E+00   -0.60632E-01  5816   0.108E+00    0.366E+00
DAV:   3    -0.145082531708E+04   -0.13363E+01   -0.53780E+00  5792   0.232E+00    0.593E+00
DAV:   4    -0.144980787070E+04    0.10174E+01   -0.37848E-01  6183   0.247E+00    0.351E+00
DAV:   5    -0.144942011517E+04    0.38776E+00   -0.44732E-01  5848   0.158E+00    0.148E+00
DAV:   6    -0.144935322248E+04    0.66893E-01   -0.13918E-01  5800   0.777E-01    0.101E+00
DAV:   7    -0.144933051024E+04    0.22712E-01   -0.64115E-02  5040   0.366E-01    0.471E-01
DAV:   8    -0.144933580050E+04   -0.52903E-02   -0.20084E-02  5344   0.243E-01    0.535E-01
DAV:   9    -0.144933056678E+04    0.52337E-02   -0.87088E-03  4736   0.139E-01    0.299E-01
DAV:  10    -0.144933025476E+04    0.31202E-03   -0.14113E-03  5608   0.661E-02    0.189E-01
DAV:  11    -0.144933007626E+04    0.17850E-03   -0.41697E-04  5400   0.585E-02    0.130E-01
DAV:  12    -0.144932995570E+04    0.12056E-03   -0.18094E-04  5360   0.406E-02    0.743E-02
DAV:  13    -0.144932995868E+04   -0.29781E-05   -0.10236E-04  4864   0.184E-02    0.605E-02
DAV:  14    -0.144932996958E+04   -0.10897E-04   -0.23752E-05  4008   0.720E-03    0.567E-02
DAV:  15    -0.144932997727E+04   -0.76978E-05   -0.59839E-06  2616   0.393E-03    0.554E-02
DAV:  16    -0.144932998783E+04   -0.10553E-04   -0.30070E-06  2288   0.246E-03    0.547E-02
DAV:  17    -0.144932999219E+04   -0.43665E-05   -0.14642E-06  2216   0.200E-03
   7 F= -.15403677E+04 E0= -.15402829E+04  d E =-.178309E+01
       N       E                     dE             d eps       ncg     rms          rms(c)
DAV:   1    -0.144962723407E+04   -0.29725E+00   -0.74705E+01  3852   0.118E+01    0.757E+00
DAV:   2    -0.145007683646E+04   -0.44960E+00   -0.34986E+00  5672   0.243E+00    0.623E+00
DAV:   3    -0.145444133409E+04   -0.43645E+01   -0.14558E+00  5463   0.414E+00    0.109E+01
DAV:   4    -0.145180615656E+04    0.26352E+01   -0.67840E+00  6086   0.458E+00    0.928E+00
DAV:   5    -0.145030380413E+04    0.15024E+01   -0.15972E+00  6064   0.251E+00    0.405E+00
DAV:   6    -0.145005337919E+04    0.25042E+00   -0.68992E-01  5192   0.170E+00    0.308E+00
DAV:   7    -0.144992466141E+04    0.12872E+00   -0.86680E-01  5960   0.126E+00    0.169E+00
DAV:   8    -0.144982899731E+04    0.95664E-01   -0.94154E-02  5224   0.706E-01    0.670E-01
DAV:   9    -0.144981919029E+04    0.98070E-02   -0.31718E-02  4984   0.287E-01    0.407E-01
DAV:  10    -0.144981616957E+04    0.30207E-02   -0.84551E-03  5040   0.168E-01    0.280E-01
DAV:  11    -0.144981596937E+04    0.20020E-03   -0.28370E-03  5664   0.110E-01    0.174E-01
DAV:  12    -0.144981602448E+04   -0.55111E-04   -0.92854E-04  4912   0.595E-02    0.123E-01
DAV:  13    -0.144981589026E+04    0.13422E-03   -0.27931E-04  5768   0.295E-02    0.902E-02
DAV:  14    -0.144981584508E+04    0.45181E-04   -0.11446E-04  4296   0.172E-02    0.650E-02
DAV:  15    -0.144981587432E+04   -0.29247E-04   -0.39846E-05  4392   0.977E-03    0.575E-02
DAV:  16    -0.144981588067E+04   -0.63472E-05   -0.10678E-05  2768   0.732E-03    0.545E-02
DAV:  17    -0.144981588922E+04   -0.85533E-05   -0.45814E-06  2440   0.393E-03    0.542E-02
DAV:  18    -0.144981589715E+04   -0.79222E-05   -0.21222E-06  2288   0.220E-03    0.542E-02
DAV:  19    -0.144981590623E+04   -0.90884E-05   -0.91810E-07  2264   0.131E-03    0.542E-02
DAV:  20    -0.144981591555E+04   -0.93143E-05   -0.51092E-07  2128   0.942E-04    0.541E-02
DAV:  21    -0.144981592198E+04   -0.64297E-05   -0.30937E-07  2096   0.671E-04    0.541E-02
DAV:  22    -0.144981593698E+04   -0.15001E-04   -0.22008E-07  2072   0.561E-04    0.541E-02
DAV:  23    -0.144981594383E+04   -0.68503E-05   -0.15553E-07  2032   0.427E-04    0.541E-02
DAV:  24    -0.144981595128E+04   -0.74480E-05   -0.11265E-07  2032   0.356E-04    0.541E-02
DAV:  25    -0.144981595868E+04   -0.73988E-05   -0.81865E-08  2024   0.285E-04    0.541E-02
DAV:  26    -0.144981596006E+04   -0.13836E-05   -0.59244E-08  2008   0.239E-04
   8 F= -.15408453E+04 E0= -.15407538E+04  d E =-.477553E+00
       N       E                     dE             d eps       ncg     rms          rms(c)
DAV:   1    -0.144983164917E+04   -0.15690E-01   -0.11120E+01  3860   0.453E+00    0.301E+00
DAV:   2    -0.144989606852E+04   -0.64419E-01   -0.51418E-01  5672   0.913E-01    0.237E+00
DAV:   3    -0.145057380392E+04   -0.67774E+00   -0.23074E+00  5743   0.164E+00    0.426E+00
DAV:   4    -0.145022641751E+04    0.34739E+00   -0.72948E-01  6232   0.181E+00    0.455E+00
DAV:   5    -0.144995480945E+04    0.27161E+00   -0.10339E+00  6440   0.105E+00    0.160E+00
DAV:   6    -0.144989993515E+04    0.54874E-01   -0.14666E-01  5064   0.739E-01    0.127E+00
DAV:   7    -0.144986636211E+04    0.33573E-01   -0.60091E-02  6232   0.552E-01    0.548E-01
DAV:   8    -0.144986177256E+04    0.45896E-02   -0.15607E-02  5112   0.260E-01    0.315E-01
DAV:   9    -0.144985958885E+04    0.21837E-02   -0.54373E-03  4928   0.125E-01    0.153E-01
DAV:  10    -0.144985958483E+04    0.40168E-05   -0.10644E-03  5136   0.676E-02    0.114E-01
DAV:  11    -0.144985956394E+04    0.20891E-04   -0.28509E-04  5616   0.361E-02    0.808E-02
DAV:  12    -0.144985951843E+04    0.45515E-04   -0.16780E-04  4984   0.189E-02    0.597E-02
DAV:  13    -0.144985951481E+04    0.36153E-05   -0.34166E-05  4352   0.997E-03
   9 F= -.15408856E+04 E0= -.15407915E+04  d E =-.517827E+00
       N       E                     dE             d eps       ncg     rms          rms(c)
DAV:   1    -0.145016757825E+04   -0.30806E+00   -0.37313E+01  3852   0.839E+00    0.461E+00
DAV:   2    -0.145127586433E+04   -0.11083E+01   -0.66654E+00  6056   0.230E+00    0.612E+00
DAV:   3    -0.145229038845E+04   -0.10145E+01   -0.16640E+00  5535   0.341E+00    0.708E+00
DAV:   4    -0.145055926141E+04    0.17311E+01   -0.17997E+00  5976   0.282E+00    0.234E+00
DAV:   5    -0.145043845197E+04    0.12081E+00   -0.78058E-01  5695   0.159E+00    0.196E+00
DAV:   6    -0.145024816321E+04    0.19029E+00   -0.28191E-01  5464   0.913E-01    0.922E-01
DAV:   7    -0.145024660339E+04    0.15598E-02   -0.38006E-02  4759   0.402E-01    0.434E-01
DAV:   8    -0.145024774033E+04   -0.11369E-02   -0.10126E-02  6024   0.223E-01    0.379E-01
DAV:   9    -0.145024658703E+04    0.11533E-02   -0.26388E-03  5568   0.151E-01    0.188E-01
DAV:  10    -0.145024641911E+04    0.16791E-03   -0.83107E-04  5968   0.697E-02    0.116E-01
DAV:  11    -0.145024640471E+04    0.14402E-04   -0.26153E-04  5672   0.441E-02    0.941E-02
DAV:  12    -0.145024637322E+04    0.31488E-04   -0.10951E-04  5295   0.303E-02    0.648E-02
DAV:  13    -0.145024635098E+04    0.22241E-04   -0.57027E-05  4672   0.136E-02    0.568E-02
DAV:  14    -0.145024634633E+04    0.46480E-05   -0.26105E-05  3432   0.772E-03
  10 F= -.15412702E+04 E0= -.15411705E+04  d E =-.384583E+00
       N       E                     dE             d eps       ncg     rms          rms(c)
DAV:   1    -0.145010189775E+04    0.14445E+00   -0.33501E+02  3852   0.253E+01    0.139E+01
DAV:   2    -0.146310371803E+04   -0.13002E+02   -0.26055E+01  6024   0.748E+00    0.287E+01
DAV:   3    -0.146317378696E+04   -0.70069E-01   -0.45614E+01  5415   0.942E+00    0.200E+01
DAV:   4    -0.145627272416E+04    0.69011E+01   -0.22521E+01  6143   0.853E+00    0.994E+00
DAV:   5    -0.145191039454E+04    0.43623E+01   -0.62860E+00  5727   0.533E+00    0.468E+00
DAV:   6    -0.145126130391E+04    0.64909E+00   -0.25861E+00  5535   0.313E+00    0.510E+00
DAV:   7    -0.145084662434E+04    0.41468E+00   -0.96383E-01  5263   0.199E+00    0.198E+00
DAV:   8    -0.145087003966E+04   -0.23415E-01   -0.18137E-01  5416   0.931E-01    0.135E+00
DAV:   9    -0.145085746017E+04    0.12579E-01   -0.59660E-02  5184   0.532E-01    0.787E-01
DAV:  10    -0.145085845270E+04   -0.99253E-03   -0.15228E-02  6168   0.259E-01    0.568E-01
DAV:  11    -0.145085702294E+04    0.14298E-02   -0.56269E-03  5400   0.226E-01    0.444E-01
DAV:  12    -0.145085625796E+04    0.76498E-03   -0.28648E-03  5840   0.145E-01    0.204E-01
DAV:  13    -0.145085566657E+04    0.59139E-03   -0.24845E-03  5056   0.924E-02    0.129E-01
DAV:  14    -0.145085535959E+04    0.30698E-03   -0.56667E-04  4688   0.340E-02    0.635E-02
DAV:  15    -0.145085540208E+04   -0.42491E-04   -0.95218E-05  5112   0.132E-02    0.632E-02
DAV:  16    -0.145085538355E+04    0.18536E-04   -0.16818E-05  3304   0.584E-03    0.554E-02
DAV:  17    -0.145085536907E+04    0.14473E-04   -0.87068E-06  2840   0.473E-03    0.535E-02
DAV:  18    -0.145085536436E+04    0.47158E-05   -0.34019E-06  2216   0.313E-03
  11 F= -.15418730E+04 E0= -.15417614E+04  d E =-.987448E+00
       N       E                     dE             d eps       ncg     rms          rms(c)
DAV:   1    -0.145115680957E+04   -0.30144E+00   -0.62735E+01  3852   0.110E+01    0.726E+00
DAV:   2    -0.145309717531E+04   -0.19404E+01   -0.83023E+00  6032   0.313E+00    0.843E+00
DAV:   3    -0.145628028400E+04   -0.31831E+01   -0.36270E+00  5495   0.507E+00    0.117E+01
DAV:   4    -0.145221543828E+04    0.40648E+01   -0.55746E+00  6192   0.462E+00    0.486E+00
DAV:   5    -0.145172263392E+04    0.49280E+00   -0.12368E+00  5903   0.268E+00    0.271E+00
DAV:   6    -0.145137649465E+04    0.34614E+00   -0.61868E-01  5592   0.153E+00    0.242E+00
DAV:   7    -0.145128614298E+04    0.90352E-01   -0.23378E-01  5182   0.885E-01    0.821E-01
DAV:   8    -0.145129627982E+04   -0.10137E-01   -0.32300E-02  5224   0.370E-01    0.693E-01
DAV:   9    -0.145129357401E+04    0.27058E-02   -0.15639E-02  5872   0.264E-01    0.494E-01
DAV:  10    -0.145129231154E+04    0.12625E-02   -0.24779E-03  5648   0.140E-01    0.227E-01
DAV:  11    -0.145129218206E+04    0.12948E-03   -0.90766E-04  5528   0.613E-02    0.165E-01
DAV:  12    -0.145129197622E+04    0.20584E-03   -0.29099E-04  5744   0.509E-02    0.998E-02
DAV:  13    -0.145129190477E+04    0.71447E-04   -0.19222E-04  5336   0.310E-02    0.638E-02
DAV:  14    -0.145129189461E+04    0.10165E-04   -0.89104E-05  4808   0.137E-02    0.628E-02
DAV:  15    -0.145129188567E+04    0.89394E-05   -0.16856E-05  3272   0.901E-03    0.569E-02
DAV:  16    -0.145129186518E+04    0.20494E-04   -0.53846E-06  2512   0.418E-03    0.540E-02
DAV:  17    -0.145129185541E+04    0.97700E-05   -0.27207E-06  2352   0.279E-03    0.536E-02
DAV:  18    -0.145129185122E+04    0.41830E-05   -0.14250E-06  2248   0.204E-03
  12 F= -.15423086E+04 E0= -.15421948E+04  d E =-.435594E+00
       N       E                     dE             d eps       ncg     rms          rms(c)
DAV:   1    -0.145107893788E+04    0.21292E+00   -0.19113E+02  3852   0.193E+01    0.127E+01
DAV:   2    -0.145529409903E+04   -0.42152E+01   -0.14588E+01  5888   0.516E+00    0.144E+01
DAV:   3    -0.146929243795E+04   -0.13998E+02   -0.21374E+01  5519   0.892E+00    0.225E+01
DAV:   4    -0.145442330043E+04    0.14869E+02   -0.81196E+00  6119   0.815E+00    0.903E+00
DAV:   5    -0.145260916327E+04    0.18141E+01   -0.65914E+00  5864   0.471E+00    0.397E+00
DAV:   6    -0.145182999573E+04    0.77917E+00   -0.25634E+00  5536   0.279E+00    0.424E+00
DAV:   7    -0.145149736325E+04    0.33263E+00   -0.62972E-01  5071   0.155E+00    0.134E+00
DAV:   8    -0.145153653453E+04   -0.39171E-01   -0.14983E-01  5192   0.570E-01    0.124E+00
DAV:   9    -0.145153120132E+04    0.53332E-02   -0.93252E-02  5752   0.501E-01    0.108E+00
DAV:  10    -0.145152535316E+04    0.58482E-02   -0.96980E-03  5920   0.279E-01    0.500E-01
DAV:  11    -0.145152455923E+04    0.79393E-03   -0.19934E-02  5231   0.149E-01    0.387E-01
DAV:  12    -0.145152352114E+04    0.10381E-02   -0.10235E-02  5584   0.959E-02    0.174E-01
DAV:  13    -0.145152333816E+04    0.18298E-03   -0.79652E-04  4888   0.455E-02    0.987E-02
DAV:  14    -0.145152327277E+04    0.65391E-04   -0.20392E-04  5008   0.227E-02    0.681E-02
DAV:  15    -0.145152329590E+04   -0.23126E-04   -0.49358E-05  4704   0.121E-02    0.628E-02
DAV:  16    -0.145152327135E+04    0.24542E-04   -0.16403E-05  3392   0.881E-03    0.545E-02
DAV:  17    -0.145152326373E+04    0.76293E-05   -0.63507E-06  2560   0.444E-03    0.538E-02
DAV:  18    -0.145152325788E+04    0.58416E-05   -0.21829E-06  2248   0.322E-03    0.533E-02
DAV:  19    -0.145152324273E+04    0.15153E-04   -0.10402E-06  2184   0.160E-03    0.532E-02
DAV:  20    -0.145152322553E+04    0.17198E-04   -0.65543E-07  2136   0.116E-03    0.532E-02
DAV:  21    -0.145152321733E+04    0.82047E-05   -0.34153E-07  2128   0.845E-04    0.532E-02
DAV:  22    -0.145152320565E+04    0.11679E-04   -0.24064E-07  2080   0.636E-04    0.532E-02
DAV:  23    -0.145152318730E+04    0.18353E-04   -0.17175E-07  2080   0.483E-04    0.532E-02
DAV:  24    -0.145152317902E+04    0.82765E-05   -0.10747E-07  2072   0.373E-04    0.532E-02
DAV:  25    -0.145152317164E+04    0.73756E-05   -0.74661E-08  2032   0.304E-04    0.532E-02
DAV:  26    -0.145152316659E+04    0.50560E-05   -0.50737E-08  2032   0.249E-04    0.532E-02
DAV:  27    -0.145152316530E+04    0.12853E-05   -0.34953E-08  2032   0.186E-04
  13 F= -.15425390E+04 E0= -.15424248E+04  d E =-.666024E+00
       N       E                     dE             d eps       ncg     rms          rms(c)
DAV:   1    -0.145165933641E+04   -0.13617E+00   -0.45075E+01  3828   0.950E+00    0.357E+00
DAV:   2    -0.145191099948E+04   -0.25166E+00   -0.25367E+00  5872   0.190E+00    0.398E+00
DAV:   3    -0.145278130766E+04   -0.87031E+00   -0.10626E+00  5792   0.242E+00    0.594E+00
DAV:   4    -0.145175473976E+04    0.10266E+01   -0.11029E+00  5519   0.168E+00    0.231E+00
DAV:   5    -0.145181131578E+04   -0.56576E-01   -0.11928E-01  5864   0.899E-01    0.184E+00
DAV:   6    -0.145179237319E+04    0.18943E-01   -0.12347E-01  5584   0.735E-01    0.129E+00
DAV:   7    -0.145177665822E+04    0.15715E-01   -0.34427E-01  6256   0.716E-01    0.147E+00
DAV:   8    -0.145175129811E+04    0.25360E-01   -0.29402E-02  5775   0.395E-01    0.598E-01
DAV:   9    -0.145174539397E+04    0.59041E-02   -0.62371E-02  4824   0.200E-01    0.279E-01
DAV:  10    -0.145174552672E+04   -0.13276E-03   -0.24039E-03  4552   0.849E-02    0.134E-01
DAV:  11    -0.145174576528E+04   -0.23856E-03   -0.65880E-04  6144   0.690E-02    0.154E-01
DAV:  12    -0.145174559299E+04    0.17229E-03   -0.16832E-04  5440   0.497E-02    0.818E-02
DAV:  13    -0.145174555015E+04    0.42844E-04   -0.77705E-05  5376   0.189E-02    0.582E-02
DAV:  14    -0.145174557016E+04   -0.20016E-04   -0.22762E-05  3872   0.870E-03    0.568E-02
DAV:  15    -0.145174557524E+04   -0.50763E-05   -0.43070E-06  2280   0.433E-03    0.547E-02
DAV:  16    -0.145174557463E+04    0.61013E-06   -0.22814E-06  2192   0.336E-03
  14 F= -.15427598E+04 E0= -.15426459E+04  d E =-.220729E+00
       N       E                     dE             d eps       ncg     rms          rms(c)
DAV:   1    -0.145120919797E+04    0.53638E+00   -0.40431E+02  3820   0.285E+01    0.108E+01
DAV:   2    -0.145308707026E+04   -0.18779E+01   -0.22307E+01  5704   0.608E+00    0.107E+01
DAV:   3    -0.145331308965E+04   -0.22602E+00   -0.10333E+01  5616   0.488E+00    0.829E+00
DAV:   4    -0.145288673292E+04    0.42636E+00   -0.38720E+00  5240   0.331E+00    0.666E+00
DAV:   5    -0.145287186570E+04    0.14867E-01   -0.17873E+00  5880   0.293E+00    0.508E+00
DAV:   6    -0.145276815354E+04    0.10371E+00   -0.13260E+00  5480   0.217E+00    0.430E+00
DAV:   7    -0.145222782618E+04    0.54033E+00   -0.68565E-01  6128   0.197E+00    0.239E+00
DAV:   8    -0.145209038367E+04    0.13744E+00   -0.22230E-01  5768   0.119E+00    0.113E+00
DAV:   9    -0.145208059824E+04    0.97854E-02   -0.56388E-02  4744   0.467E-01    0.674E-01
DAV:  10    -0.145208095199E+04   -0.35375E-03   -0.12817E-02  5432   0.168E-01    0.510E-01
DAV:  11    -0.145208159898E+04   -0.64699E-03   -0.13864E-03  5624   0.685E-02    0.494E-01
DAV:  12    -0.145208159975E+04   -0.77218E-06   -0.12747E-03  6056   0.103E-01    0.339E-01
DAV:  13    -0.145208147235E+04    0.12740E-03   -0.18336E-03  5280   0.109E-01    0.191E-01
DAV:  14    -0.145208105843E+04    0.41392E-03   -0.64073E-04  4856   0.461E-02    0.137E-01
DAV:  15    -0.145208111999E+04   -0.61566E-04   -0.11062E-04  5256   0.194E-02    0.118E-01
DAV:  16    -0.145208108402E+04    0.35973E-04   -0.26998E-05  4040   0.932E-03    0.966E-02
DAV:  17    -0.145208103945E+04    0.44572E-04   -0.86718E-05  5224   0.149E-02    0.561E-02
DAV:  18    -0.145208106169E+04   -0.22241E-04   -0.13862E-05  2896   0.518E-03    0.548E-02
DAV:  19    -0.145208106094E+04    0.74867E-06   -0.20671E-06  2168   0.275E-03
  15 F= -.15430915E+04 E0= -.15429815E+04  d E =-.552414E+00
       N       E                     dE             d eps       ncg     rms          rms(c)
DAV:   1    -0.145234032634E+04   -0.25926E+00   -0.61145E+01  3884   0.108E+01    0.941E+00
DAV:   2    -0.145263114576E+04   -0.29082E+00   -0.28272E+00  5504   0.220E+00    0.515E+00
DAV:   3    -0.145334516474E+04   -0.71402E+00   -0.17052E+00  5808   0.327E+00    0.768E+00
DAV:   4    -0.145587462076E+04   -0.25295E+01   -0.33499E+00  5894   0.429E+00    0.898E+00
DAV:   5    -0.145248798233E+04    0.33866E+01   -0.31984E+00  5840   0.315E+00    0.298E+00
DAV:   6    -0.145253169455E+04   -0.43712E-01   -0.36031E-01  5575   0.123E+00    0.153E+00
DAV:   7    -0.145251520183E+04    0.16493E-01   -0.16002E-01  5136   0.566E-01    0.611E-01
DAV:   8    -0.145251166796E+04    0.35339E-02   -0.37313E-02  5312   0.414E-01    0.620E-01
DAV:   9    -0.145249877942E+04    0.12889E-01   -0.34910E-02  5552   0.207E-01    0.319E-01
DAV:  10    -0.145249943270E+04   -0.65328E-03   -0.24934E-03  4920   0.971E-02    0.251E-01
DAV:  11    -0.145249959217E+04   -0.15947E-03   -0.68256E-04  5592   0.508E-02    0.192E-01
DAV:  12    -0.145249943738E+04    0.15479E-03   -0.38984E-04  5424   0.482E-02    0.105E-01
DAV:  13    -0.145249937917E+04    0.58209E-04   -0.16245E-04  5312   0.309E-02    0.757E-02
DAV:  14    -0.145249935243E+04    0.26742E-04   -0.65314E-05  4744   0.133E-02    0.634E-02
DAV:  15    -0.145249936793E+04   -0.15503E-04   -0.17731E-05  3504   0.639E-03    0.598E-02
DAV:  16    -0.145249936074E+04    0.71925E-05   -0.15396E-05  3032   0.672E-03    0.541E-02
DAV:  17    -0.145249936652E+04   -0.57805E-05   -0.78644E-06  2800   0.531E-03    0.530E-02
DAV:  18    -0.145249936567E+04    0.84378E-06   -0.32278E-06  2120   0.309E-03
  16 F= -.15435112E+04 E0= -.15434019E+04  d E =-.419745E+00
       N       E                     dE             d eps       ncg     rms          rms(c)
DAV:   1    -0.145250799842E+04   -0.86319E-02   -0.31205E+01  3861   0.770E+00    0.686E+00
DAV:   2    -0.145266300725E+04   -0.15501E+00   -0.14635E+00  5528   0.158E+00    0.366E+00
DAV:   3    -0.145333753810E+04   -0.67453E+00   -0.11462E+00  5920   0.258E+00    0.649E+00
DAV:   4    -0.145474469411E+04   -0.14072E+01   -0.11544E+00  5759   0.340E+00    0.721E+00
DAV:   5    -0.145255946334E+04    0.21852E+01   -0.47230E-01  6176   0.253E+00    0.193E+00
DAV:   6    -0.145265695154E+04   -0.97488E-01   -0.30657E-01  5696   0.947E-01    0.100E+00
DAV:   7    -0.145260507373E+04    0.51878E-01   -0.84358E-02  5104   0.611E-01    0.796E-01
DAV:   8    -0.145258879089E+04    0.16283E-01   -0.63232E-02  5472   0.307E-01    0.318E-01
DAV:   9    -0.145259023047E+04   -0.14396E-02   -0.47430E-03  4704   0.116E-01    0.219E-01
DAV:  10    -0.145259017292E+04    0.57551E-04   -0.98063E-04  6024   0.562E-02    0.170E-01
DAV:  11    -0.145259011398E+04    0.58941E-04   -0.25014E-04  5352   0.416E-02    0.135E-01
DAV:  12    -0.145259006583E+04    0.48145E-04   -0.15029E-04  5224   0.431E-02    0.904E-02
DAV:  13    -0.145259002740E+04    0.38431E-04   -0.10291E-04  5200   0.251E-02    0.677E-02
DAV:  14    -0.145258998503E+04    0.42370E-04   -0.51492E-05  4656   0.111E-02    0.571E-02
DAV:  15    -0.145259000594E+04   -0.20905E-04   -0.80446E-06  2568   0.443E-03    0.561E-02
DAV:  16    -0.145259000715E+04   -0.12087E-05   -0.38059E-06  2232   0.389E-03
  17 F= -.15436030E+04 E0= -.15434944E+04  d E =-.511570E+00
       N       E                     dE             d eps       ncg     rms          rms(c)
DAV:   1    -0.145272840585E+04   -0.13840E+00   -0.18547E+01  3869   0.601E+00    0.340E+00
DAV:   2    -0.145284596185E+04   -0.11756E+00   -0.75091E-01  5944   0.127E+00    0.334E+00
DAV:   3    -0.145282733110E+04    0.18631E-01   -0.53237E-01  5664   0.150E+00    0.269E+00
DAV:   4    -0.145280121888E+04    0.26112E-01   -0.87661E-02  6112   0.985E-01    0.133E+00
DAV:   5    -0.145285996208E+04   -0.58743E-01   -0.22511E-01  5967   0.811E-01    0.106E+00
DAV:   6    -0.145293865065E+04   -0.78689E-01   -0.67844E-01  5840   0.853E-01    0.274E+00
DAV:   7    -0.145275878698E+04    0.17986E+00   -0.26524E-01  5904   0.619E-01    0.712E-01
DAV:   8    -0.145276618631E+04   -0.73993E-02   -0.18294E-02  5856   0.256E-01    0.309E-01
DAV:   9    -0.145276658407E+04   -0.39776E-03   -0.43011E-03  5600   0.179E-01    0.283E-01
DAV:  10    -0.145276558084E+04    0.10032E-02   -0.90587E-04  5264   0.997E-02    0.103E-01
DAV:  11    -0.145276561006E+04   -0.29219E-04   -0.35835E-04  5704   0.312E-02    0.718E-02
DAV:  12    -0.145276562945E+04   -0.19383E-04   -0.70396E-05  4760   0.122E-02    0.620E-02
DAV:  13    -0.145276561795E+04    0.11498E-04   -0.15806E-05  3400   0.806E-03    0.540E-02
DAV:  14    -0.145276562255E+04   -0.46056E-05   -0.12517E-05  3016   0.627E-03
  18 F= -.15437832E+04 E0= -.15436750E+04  d E =-.180146E+00
       N       E                     dE             d eps       ncg     rms          rms(c)
DAV:   1    -0.145266128232E+04    0.10434E+00   -0.16726E+02  3868   0.182E+01    0.100E+01
DAV:   2    -0.145368734025E+04   -0.10261E+01   -0.70155E+00  5856   0.382E+00    0.920E+00
DAV:   3    -0.145390455450E+04   -0.21721E+00   -0.38800E+00  5664   0.449E+00    0.889E+00
DAV:   4    -0.145824079898E+04   -0.43362E+01   -0.67099E+00  5992   0.500E+00    0.122E+01
DAV:   5    -0.145332555063E+04    0.49152E+01   -0.61850E+00  5951   0.451E+00    0.434E+00
DAV:   6    -0.145331834769E+04    0.72029E-02   -0.11318E+00  5816   0.203E+00    0.234E+00
DAV:   7    -0.145311650387E+04    0.20184E+00   -0.50340E-01  5472   0.141E+00    0.160E+00
DAV:   8    -0.145301374037E+04    0.10276E+00   -0.21925E-01  5384   0.722E-01    0.750E-01
DAV:   9    -0.145301644096E+04   -0.27006E-02   -0.19687E-02  4704   0.328E-01    0.647E-01
DAV:  10    -0.145301677275E+04   -0.33179E-03   -0.69680E-03  5960   0.247E-01    0.591E-01
DAV:  11    -0.145301390377E+04    0.28690E-02   -0.31289E-03  5368   0.179E-01    0.243E-01
DAV:  12    -0.145301363147E+04    0.27229E-03   -0.19225E-03  5176   0.904E-02    0.129E-01
DAV:  13    -0.145301365820E+04   -0.26727E-04   -0.56260E-04  4952   0.314E-02    0.104E-01
DAV:  14    -0.145301362254E+04    0.35661E-04   -0.10248E-04  5672   0.125E-02    0.832E-02
DAV:  15    -0.145301358372E+04    0.38816E-04   -0.85237E-05  4544   0.170E-02    0.546E-02
DAV:  16    -0.145301354235E+04    0.41371E-04   -0.63721E-05  3728   0.113E-02    0.522E-02
DAV:  17    -0.145301353882E+04    0.35337E-05   -0.12003E-05  3088   0.588E-03
  19 F= -.15440450E+04 E0= -.15439388E+04  d E =-.442021E+00
       N       E                     dE             d eps       ncg     rms          rms(c)
DAV:   1    -0.145310020852E+04   -0.86666E-01   -0.35311E+00  3822   0.265E+00    0.107E+00
DAV:   2    -0.145315121496E+04   -0.51006E-01   -0.15215E-01  6328   0.603E-01    0.182E+00
DAV:   3    -0.145321572872E+04   -0.64514E-01   -0.42750E-01  5672   0.839E-01    0.208E+00
DAV:   4    -0.145311709061E+04    0.98638E-01   -0.29198E-01  5752   0.681E-01    0.809E-01
DAV:   5    -0.145311032211E+04    0.67685E-02   -0.15052E-02  5784   0.349E-01    0.426E-01
DAV:   6    -0.145311419819E+04   -0.38761E-02   -0.12199E-02  5688   0.268E-01    0.361E-01
DAV:   7    -0.145310678012E+04    0.74181E-02   -0.47319E-03  5328   0.180E-01    0.184E-01
DAV:   8    -0.145310676220E+04    0.17921E-04   -0.11525E-03  5472   0.971E-02    0.143E-01
DAV:   9    -0.145310654912E+04    0.21309E-03   -0.40211E-04  5640   0.598E-02    0.931E-02
DAV:  10    -0.145310654529E+04    0.38281E-05   -0.11108E-04  5496   0.264E-02    0.583E-02
DAV:  11    -0.145310654856E+04   -0.32673E-05   -0.33173E-05  4344   0.929E-03
  20 F= -.15441398E+04 E0= -.15440335E+04  d E =-.947743E-01
       N       E                     dE             d eps       ncg     rms          rms(c)
DAV:   1    -0.145331030617E+04   -0.20376E+00   -0.31787E+01  3812   0.795E+00    0.317E+00
DAV:   2    -0.145372459363E+04   -0.41429E+00   -0.16484E+00  6304   0.180E+00    0.475E+00
DAV:   3    -0.145445110892E+04   -0.72652E+00   -0.30660E+00  5488   0.253E+00    0.631E+00
DAV:   4    -0.145342107098E+04    0.10300E+01   -0.74311E-01  5704   0.202E+00    0.226E+00
DAV:   5    -0.145339999370E+04    0.21077E-01   -0.15592E-01  5616   0.953E-01    0.136E+00
DAV:   6    -0.145345077761E+04   -0.50784E-01   -0.12812E-01  5512   0.800E-01    0.106E+00
DAV:   7    -0.145336780592E+04    0.82972E-01   -0.41602E-02  5240   0.560E-01    0.485E-01
DAV:   8    -0.145336769983E+04    0.10609E-03   -0.10030E-02  5496   0.281E-01    0.377E-01
DAV:   9    -0.145336625333E+04    0.14465E-02   -0.33309E-03  5352   0.170E-01    0.231E-01
DAV:  10    -0.145336602289E+04    0.23044E-03   -0.10454E-03  5600   0.748E-02    0.113E-01
DAV:  11    -0.145336606248E+04   -0.39590E-04   -0.32187E-04  5376   0.291E-02    0.834E-02
DAV:  12    -0.145336604041E+04    0.22068E-04   -0.75293E-05  4968   0.178E-02    0.567E-02
DAV:  13    -0.145336603558E+04    0.48332E-05   -0.24084E-05  4032   0.911E-03
  21 F= -.15444047E+04 E0= -.15442987E+04  d E =-.359604E+00
       N       E                     dE             d eps       ncg     rms          rms(c)
DAV:   1    -0.145357250043E+04   -0.20646E+00   -0.12704E+02  3812   0.159E+01    0.631E+00
DAV:   2    -0.145499260991E+04   -0.14201E+01   -0.72198E+00  6208   0.354E+00    0.864E+00
DAV:   3    -0.145836384343E+04   -0.33712E+01   -0.52539E+00  5352   0.511E+00    0.124E+01
DAV:   4    -0.145408497957E+04    0.42789E+01   -0.68452E+00  5808   0.400E+00    0.420E+00
DAV:   5    -0.145397697922E+04    0.10800E+00   -0.92326E-01  5584   0.191E+00    0.296E+00
DAV:   6    -0.145402491966E+04   -0.47940E-01   -0.76313E-01  5480   0.152E+00    0.206E+00
DAV:   7    -0.145380622208E+04    0.21870E+00   -0.14009E-01  5232   0.101E+00    0.101E+00
DAV:   8    -0.145380689609E+04   -0.67401E-03   -0.35328E-02  5328   0.500E-01    0.718E-01
DAV:   9    -0.145380059122E+04    0.63049E-02   -0.12087E-02  5544   0.326E-01    0.448E-01
DAV:  10    -0.145379912369E+04    0.14675E-02   -0.36484E-03  5728   0.154E-01    0.187E-01
DAV:  11    -0.145379898689E+04    0.13681E-03   -0.14832E-03  5168   0.687E-02    0.109E-01
DAV:  12    -0.145379908516E+04   -0.98269E-04   -0.47637E-04  5200   0.309E-02    0.736E-02
DAV:  13    -0.145379911009E+04   -0.24931E-04   -0.10349E-04  5072   0.164E-02    0.615E-02
DAV:  14    -0.145379911443E+04   -0.43469E-05   -0.18012E-05  3400   0.955E-03
  22 F= -.15448486E+04 E0= -.15447444E+04  d E =-.803590E+00
       N       E                     dE             d eps       ncg     rms          rms(c)
DAV:   1    -0.145333958820E+04    0.45952E+00   -0.50728E+02  3812   0.319E+01    0.125E+01
DAV:   2    -0.145872239098E+04   -0.53828E+01   -0.28010E+01  6160   0.719E+00    0.176E+01
DAV:   3    -0.147428231120E+04   -0.15560E+02   -0.16322E+01  5288   0.102E+01    0.292E+01
DAV:   4    -0.145455622465E+04    0.19726E+02   -0.26047E+01  5768   0.780E+00    0.839E+00
DAV:   5    -0.145482186445E+04   -0.26564E+00   -0.40263E+00  5320   0.336E+00    0.553E+00
DAV:   6    -0.145565380906E+04   -0.83194E+00   -0.27447E+00  5320   0.303E+00    0.438E+00
DAV:   7    -0.145435606664E+04    0.12977E+01   -0.70066E-01  5176   0.209E+00    0.203E+00
DAV:   8    -0.145436199902E+04   -0.59324E-02   -0.19711E-01  5728   0.116E+00    0.175E+00
DAV:   9    -0.145431468472E+04    0.47314E-01   -0.68071E-02  5392   0.735E-01    0.893E-01
DAV:  10    -0.145431244025E+04    0.22445E-02   -0.22020E-02  5608   0.286E-01    0.476E-01
DAV:  11    -0.145431137324E+04    0.10670E-02   -0.57089E-03  5224   0.128E-01    0.284E-01
DAV:  12    -0.145431157362E+04   -0.20038E-03   -0.22348E-03  5040   0.804E-02    0.103E-01
DAV:  13    -0.145431156526E+04    0.83573E-05   -0.54752E-04  5128   0.504E-02    0.782E-02
DAV:  14    -0.145431156165E+04    0.36111E-05   -0.15805E-04  5416   0.241E-02    0.642E-02
DAV:  15    -0.145431156341E+04   -0.17575E-05   -0.75724E-05  4376   0.146E-02    0.546E-02
DAV:  16    -0.145431156444E+04   -0.10293E-05   -0.26983E-05  3688   0.845E-03
  23 F= -.15453838E+04 E0= -.15452858E+04  d E =-.133871E+01
       N       E                     dE             d eps       ncg     rms          rms(c)
DAV:   1    -0.144923686332E+04    0.50747E+01   -0.20277E+03  3812   0.642E+01    0.240E+01
DAV:   2    -0.146260469066E+04   -0.13368E+02   -0.98831E+01  5872   0.139E+01    0.297E+01
DAV:   3    -0.150940887454E+04   -0.46804E+02   -0.22332E+01  5336   0.165E+01    0.506E+01
DAV:   4    -0.145490984622E+04    0.54499E+02   -0.19468E+01  5728   0.131E+01    0.158E+01
DAV:   5    -0.145553117040E+04   -0.62132E+00   -0.14476E+01  5680   0.586E+00    0.102E+01
DAV:   6    -0.145818030526E+04   -0.26491E+01   -0.65816E+00  5408   0.560E+00    0.867E+00
DAV:   7    -0.145452398879E+04    0.36563E+01   -0.44378E+00  5160   0.405E+00    0.554E+00
DAV:   8    -0.145414817603E+04    0.37581E+00   -0.14107E+00  5952   0.286E+00    0.525E+00
DAV:   9    -0.145386766185E+04    0.28051E+00   -0.39009E-01  5336   0.170E+00    0.218E+00
DAV:  10    -0.145386360946E+04    0.40524E-02   -0.15555E-01  5144   0.722E-01    0.137E+00
DAV:  11    -0.145384403335E+04    0.19576E-01   -0.33953E-02  5320   0.332E-01    0.813E-01
DAV:  12    -0.145384174560E+04    0.22878E-02   -0.16204E-02  5896   0.238E-01    0.393E-01
DAV:  13    -0.145384218365E+04   -0.43805E-03   -0.55714E-03  4944   0.158E-01    0.183E-01
DAV:  14    -0.145384197252E+04    0.21113E-03   -0.13918E-03  4920   0.879E-02    0.145E-01
DAV:  15    -0.145384197460E+04   -0.20792E-05   -0.70229E-04  4920   0.510E-02    0.941E-02
DAV:  16    -0.145384195151E+04    0.23083E-04   -0.17665E-04  5040   0.253E-02    0.664E-02
DAV:  17    -0.145384196737E+04   -0.15852E-04   -0.68474E-05  4928   0.178E-02    0.496E-02
DAV:  18    -0.145384196934E+04   -0.19778E-05   -0.18489E-05  3584   0.864E-03
  24 F= -.15449626E+04 E0= -.15448875E+04  d E =-.917550E+00
       N       E                     dE             d eps       ncg     rms          rms(c)
DAV:   1    -0.145229029569E+04    0.15517E+01   -0.10331E+03  3812   0.462E+01    0.190E+01
DAV:   2    -0.146148356223E+04   -0.91933E+01   -0.47622E+01  5992   0.106E+01    0.219E+01
DAV:   3    -0.150137980744E+04   -0.39896E+02   -0.24940E+01  5319   0.147E+01    0.370E+01
DAV:   4    -0.145751295406E+04    0.43867E+02   -0.36621E+01  6048   0.130E+01    0.118E+01
DAV:   5    -0.145632656496E+04    0.11864E+01   -0.10303E+01  5832   0.580E+00    0.912E+00
DAV:   6    -0.145477082512E+04    0.15557E+01   -0.58673E+00  5520   0.423E+00    0.447E+00
DAV:   7    -0.145488860637E+04   -0.11778E+00   -0.20926E+00  5280   0.282E+00    0.517E+00
DAV:   8    -0.145438648869E+04    0.50212E+00   -0.69963E-01  5336   0.197E+00    0.190E+00
DAV:   9    -0.145439629126E+04   -0.98026E-02   -0.14381E-01  5056   0.692E-01    0.103E+00
DAV:  10    -0.145438775542E+04    0.85358E-02   -0.28766E-02  5624   0.364E-01    0.622E-01
DAV:  11    -0.145438770842E+04    0.46999E-04   -0.97650E-03  5200   0.225E-01    0.471E-01
DAV:  12    -0.145438586671E+04    0.18417E-02   -0.37235E-03  5384   0.202E-01    0.345E-01
DAV:  13    -0.145438537873E+04    0.48798E-03   -0.20679E-03  5288   0.107E-01    0.153E-01
DAV:  14    -0.145438528156E+04    0.97174E-04   -0.13987E-03  5000   0.604E-02    0.107E-01
DAV:  15    -0.145438519289E+04    0.88666E-04   -0.37520E-04  4736   0.292E-02    0.582E-02
DAV:  16    -0.145438519446E+04   -0.15729E-05   -0.97141E-05  5752   0.148E-02    0.517E-02
DAV:  17    -0.145438519169E+04    0.27717E-05   -0.15847E-05  3256   0.627E-03
  25 F= -.15454710E+04 E0= -.15453781E+04  d E =-.142594E+01
       N       E                     dE             d eps       ncg     rms          rms(c)
DAV:   1    -0.145459584370E+04   -0.21065E+00   -0.45692E+01  3812   0.963E+00    0.336E+00
DAV:   2    -0.145524842507E+04   -0.65258E+00   -0.31476E+00  6296   0.221E+00    0.664E+00
DAV:   3    -0.145597634517E+04   -0.72792E+00   -0.44311E+00  5456   0.310E+00    0.648E+00
DAV:   4    -0.145472837848E+04    0.12480E+01   -0.56542E-01  5864   0.230E+00    0.250E+00
DAV:   5    -0.145467614484E+04    0.52234E-01   -0.20012E-01  5440   0.999E-01    0.127E+00
DAV:   6    -0.145469512933E+04   -0.18984E-01   -0.85070E-02  5264   0.666E-01    0.102E+00
DAV:   7    -0.145466898059E+04    0.26149E-01   -0.43344E-02  5016   0.442E-01    0.673E-01
DAV:   8    -0.145467148568E+04   -0.25051E-02   -0.15827E-02  5752   0.360E-01    0.723E-01
DAV:   9    -0.145466543015E+04    0.60555E-02   -0.63378E-03  5936   0.254E-01    0.265E-01
DAV:  10    -0.145466523460E+04    0.19555E-03   -0.21184E-03  5584   0.986E-02    0.106E-01
DAV:  11    -0.145466528881E+04   -0.54208E-04   -0.52478E-04  4912   0.364E-02    0.664E-02
DAV:  12    -0.145466532195E+04   -0.33147E-04   -0.12806E-04  4960   0.167E-02    0.529E-02
DAV:  13    -0.145466532921E+04   -0.72514E-05   -0.35202E-05  4088   0.107E-02    0.483E-02
DAV:  14    -0.145466533259E+04   -0.33829E-05   -0.15378E-05  3368   0.901E-03
  26 F= -.15457586E+04 E0= -.15456691E+04  d E =-.287634E+00
       N       E                     dE             d eps       ncg     rms          rms(c)
DAV:   1    -0.145464258122E+04    0.22748E-01   -0.41118E+02  3812   0.290E+01    0.101E+01
DAV:   2    -0.145884671101E+04   -0.42041E+01   -0.22863E+01  6200   0.643E+00    0.171E+01
DAV:   3    -0.146848516096E+04   -0.96384E+01   -0.12828E+01  5320   0.869E+00    0.230E+01
DAV:   4    -0.145568409569E+04    0.12801E+02   -0.54928E+00  5840   0.658E+00    0.733E+00
DAV:   5    -0.145549558055E+04    0.18852E+00   -0.23487E+00  5464   0.280E+00    0.415E+00
DAV:   6    -0.145558389638E+04   -0.88316E-01   -0.78053E-01  5200   0.192E+00    0.310E+00
DAV:   7    -0.145542632902E+04    0.15757E+00   -0.38133E-01  5120   0.135E+00    0.259E+00
DAV:   8    -0.145542770776E+04   -0.13787E-02   -0.21433E-01  6088   0.132E+00    0.266E+00
DAV:   9    -0.145534791588E+04    0.79792E-01   -0.64902E-02  5544   0.815E-01    0.876E-01
DAV:  10    -0.145534727542E+04    0.64047E-03   -0.26869E-02  5496   0.303E-01    0.447E-01
DAV:  11    -0.145534776669E+04   -0.49127E-03   -0.69043E-03  5240   0.119E-01    0.239E-01
DAV:  12    -0.145534804682E+04   -0.28013E-03   -0.15514E-03  5368   0.761E-02    0.124E-01
DAV:  13    -0.145534807734E+04   -0.30519E-04   -0.52792E-04  5392   0.549E-02    0.787E-02
DAV:  14    -0.145534807232E+04    0.50287E-05   -0.13421E-04  5128   0.258E-02    0.560E-02
DAV:  15    -0.145534808040E+04   -0.80875E-05   -0.34580E-05  4472   0.106E-02    0.509E-02
DAV:  16    -0.145534808480E+04   -0.43963E-05   -0.17821E-05  3584   0.709E-03
  27 F= -.15464639E+04 E0= -.15463869E+04  d E =-.992888E+00
       N       E                     dE             d eps       ncg     rms          rms(c)
DAV:   1    -0.145246471942E+04    0.28834E+01   -0.16479E+03  3812   0.586E+01    0.203E+01
DAV:   2    -0.146427302318E+04   -0.11808E+02   -0.80340E+01  5960   0.127E+01    0.301E+01
DAV:   3    -0.149912339378E+04   -0.34850E+02   -0.21158E+01  5440   0.151E+01    0.431E+01
DAV:   4    -0.145757762258E+04    0.41546E+02   -0.38535E+01  5576   0.120E+01    0.143E+01
DAV:   5    -0.145691434529E+04    0.66328E+00   -0.10526E+01  5632   0.530E+00    0.921E+00
DAV:   6    -0.145662539243E+04    0.28895E+00   -0.31070E+00  5104   0.373E+00    0.675E+00
DAV:   7    -0.145628568266E+04    0.33971E+00   -0.18609E+00  5384   0.275E+00    0.588E+00
DAV:   8    -0.145627085918E+04    0.14823E-01   -0.98415E-01  6232   0.281E+00    0.653E+00
DAV:   9    -0.145587923724E+04    0.39162E+00   -0.33457E-01  5704   0.173E+00    0.211E+00
DAV:  10    -0.145588653191E+04   -0.72947E-02   -0.18438E-01  5256   0.746E-01    0.105E+00
DAV:  11    -0.145588227929E+04    0.42526E-02   -0.40417E-02  5320   0.368E-01    0.565E-01
DAV:  12    -0.145588295418E+04   -0.67489E-03   -0.12341E-02  5608   0.204E-01    0.337E-01
DAV:  13    -0.145588328854E+04   -0.33436E-03   -0.36885E-03  5344   0.135E-01    0.215E-01
DAV:  14    -0.145588270390E+04    0.58464E-03   -0.21251E-03  5184   0.990E-02    0.134E-01
DAV:  15    -0.145588264413E+04    0.59767E-04   -0.81307E-04  5112   0.527E-02    0.936E-02
DAV:  16    -0.145588262966E+04    0.14472E-04   -0.20688E-04  5216   0.227E-02    0.787E-02
DAV:  17    -0.145588261219E+04    0.17466E-04   -0.10213E-04  5632   0.175E-02    0.474E-02
DAV:  18    -0.145588261863E+04   -0.64340E-05   -0.31386E-05  4064   0.901E-03    0.425E-02
DAV:  19    -0.145588261489E+04    0.37322E-05   -0.97211E-06  3072   0.515E-03
  28 F= -.15470431E+04 E0= -.15469794E+04  d E =-.157207E+01
       N       E                     dE             d eps       ncg     rms          rms(c)
DAV:   1    -0.145620098900E+04   -0.31837E+00   -0.32400E+02  3828   0.260E+01    0.107E+01
DAV:   2    -0.145861694313E+04   -0.24160E+01   -0.15813E+01  6152   0.558E+00    0.154E+01
DAV:   3    -0.146340813773E+04   -0.47912E+01   -0.97739E+00  5776   0.697E+00    0.167E+01
DAV:   4    -0.145772035785E+04    0.56878E+01   -0.76422E+00  5600   0.548E+00    0.726E+00
DAV:   5    -0.145742552127E+04    0.29484E+00   -0.23188E+00  5920   0.340E+00    0.481E+00
DAV:   6    -0.145697012823E+04    0.45539E+00   -0.95939E-01  5520   0.245E+00    0.345E+00
DAV:   7    -0.145680402770E+04    0.16610E+00   -0.51441E-01  5128   0.148E+00    0.233E+00
DAV:   8    -0.145677730390E+04    0.26724E-01   -0.17461E-01  5640   0.114E+00    0.231E+00
DAV:   9    -0.145673813439E+04    0.39170E-01   -0.65240E-02  5304   0.689E-01    0.121E+00
DAV:  10    -0.145673266057E+04    0.54738E-02   -0.33978E-02  5312   0.340E-01    0.635E-01
DAV:  11    -0.145673163770E+04    0.10229E-02   -0.10408E-02  5112   0.163E-01    0.305E-01
DAV:  12    -0.145673223502E+04   -0.59731E-03   -0.22372E-03  5144   0.104E-01    0.190E-01
DAV:  13    -0.145673176948E+04    0.46554E-03   -0.76527E-04  5368   0.636E-02    0.105E-01
DAV:  14    -0.145673171761E+04    0.51872E-04   -0.31992E-04  5384   0.278E-02    0.683E-02
DAV:  15    -0.145673174110E+04   -0.23488E-04   -0.10497E-04  4616   0.146E-02    0.519E-02
DAV:  16    -0.145673172589E+04    0.15202E-04   -0.30196E-05  3912   0.971E-03    0.441E-02
DAV:  17    -0.145673172294E+04    0.29505E-05   -0.10938E-05  3104   0.770E-03
  29 F= -.15479157E+04 E0= -.15478480E+04  d E =-.872676E+00
       N       E                     dE             d eps       ncg     rms          rms(c)
DAV:   1    -0.145510346968E+04    0.16283E+01   -0.11368E+03  3828   0.494E+01    0.199E+01
DAV:   2    -0.146326942816E+04   -0.81660E+01   -0.57364E+01  6048   0.105E+01    0.291E+01
DAV:   3    -0.148581136131E+04   -0.22542E+02   -0.23467E+01  5672   0.128E+01    0.344E+01
DAV:   4    -0.146066983766E+04    0.25142E+02   -0.22369E+01  5536   0.104E+01    0.139E+01
DAV:   5    -0.146031447397E+04    0.35536E+00   -0.86811E+00  5744   0.628E+00    0.105E+01
DAV:   6    -0.145862207049E+04    0.16924E+01   -0.48999E+00  5384   0.458E+00    0.809E+00
DAV:   7    -0.145751738464E+04    0.11047E+01   -0.23391E+00  5328   0.303E+00    0.513E+00
DAV:   8    -0.145731611081E+04    0.20127E+00   -0.79519E-01  5752   0.221E+00    0.409E+00
DAV:   9    -0.145729658768E+04    0.19523E-01   -0.34751E-01  5120   0.137E+00    0.286E+00
DAV:  10    -0.145725366128E+04    0.42926E-01   -0.14840E-01  5136   0.813E-01    0.168E+00
DAV:  11    -0.145725171664E+04    0.19446E-02   -0.53502E-02  5712   0.458E-01    0.910E-01
DAV:  12    -0.145724731062E+04    0.44060E-02   -0.16162E-02  4976   0.306E-01    0.394E-01
DAV:  13    -0.145724858710E+04   -0.12765E-02   -0.53730E-03  4856   0.138E-01    0.285E-01
DAV:  14    -0.145724693050E+04    0.16566E-02   -0.24027E-03  5616   0.867E-02    0.188E-01
DAV:  15    -0.145724695918E+04   -0.28680E-04   -0.82705E-04  5072   0.441E-02    0.115E-01
DAV:  16    -0.145724678947E+04    0.16971E-03   -0.41006E-04  5640   0.360E-02    0.656E-02
DAV:  17    -0.145724681795E+04   -0.28485E-04   -0.15360E-04  4816   0.142E-02    0.453E-02
DAV:  18    -0.145724682361E+04   -0.56587E-05   -0.26588E-05  4056   0.725E-03    0.408E-02
DAV:  19    -0.145724681507E+04    0.85350E-05   -0.71121E-06  2560   0.403E-03    0.386E-02
DAV:  20    -0.145724680311E+04    0.11960E-04   -0.21845E-06  2224   0.292E-03    0.381E-02
DAV:  21    -0.145724679246E+04    0.10654E-04   -0.14362E-06  2088   0.189E-03    0.381E-02
DAV:  22    -0.145724677930E+04    0.13162E-04   -0.79411E-07  2056   0.131E-03    0.380E-02
DAV:  23    -0.145724676162E+04    0.17678E-04   -0.47959E-07  2088   0.824E-04    0.380E-02
DAV:  24    -0.145724675565E+04    0.59740E-05   -0.25254E-07  2032   0.608E-04    0.380E-02
DAV:  25    -0.145724674328E+04    0.12372E-04   -0.20913E-07  2016   0.449E-04    0.380E-02
DAV:  26    -0.145724673132E+04    0.11957E-04   -0.14364E-07  2008   0.416E-04    0.380E-02
DAV:  27    -0.145724672900E+04    0.23209E-05   -0.84804E-08  1984   0.294E-04
  30 F= -.15484779E+04 E0= -.15483999E+04  d E =-.143479E+01
       N       E                     dE             d eps       ncg     rms          rms(c)
DAV:   1    -0.145760349607E+04   -0.35676E+00   -0.33016E+02  3812   0.263E+01    0.926E+00
DAV:   2    -0.146107057113E+04   -0.34671E+01   -0.18166E+01  6320   0.590E+00    0.189E+01
DAV:   3    -0.146716715871E+04   -0.60966E+01   -0.10680E+01  5424   0.780E+00    0.182E+01
DAV:   4    -0.145879293750E+04    0.83742E+01   -0.14038E+01  5688   0.605E+00    0.730E+00
DAV:   5    -0.145826183785E+04    0.53110E+00   -0.17039E+00  5448   0.260E+00    0.436E+00
DAV:   6    -0.145826286634E+04   -0.10285E-02   -0.61427E-01  5000   0.169E+00    0.323E+00
DAV:   7    -0.145812898699E+04    0.13388E+00   -0.33640E-01  5248   0.119E+00    0.213E+00
DAV:   8    -0.145815673450E+04   -0.27748E-01   -0.17060E-01  5992   0.106E+00    0.234E+00
DAV:   9    -0.145812216412E+04    0.34570E-01   -0.75597E-02  5272   0.675E-01    0.132E+00
DAV:  10    -0.145811248398E+04    0.96801E-02   -0.22722E-02  5648   0.357E-01    0.616E-01
DAV:  11    -0.145811384365E+04   -0.13597E-02   -0.88035E-03  5512   0.165E-01    0.265E-01
DAV:  12    -0.145811385207E+04   -0.84213E-05   -0.17459E-03  5072   0.118E-01    0.123E-01
DAV:  13    -0.145811390379E+04   -0.51721E-04   -0.68835E-04  4976   0.544E-02    0.792E-02
DAV:  14    -0.145811384841E+04    0.55381E-04   -0.28538E-04  5096   0.266E-02    0.542E-02
DAV:  15    -0.145811385025E+04   -0.18368E-05   -0.94838E-05  4896   0.164E-02    0.488E-02
DAV:  16    -0.145811384582E+04    0.44304E-05   -0.20134E-05  3688   0.859E-03
  31 F= -.15493702E+04 E0= -.15492860E+04  d E =-.892378E+00
       N       E                     dE             d eps       ncg     rms          rms(c)
DAV:   1    -0.145371931578E+04    0.43945E+01   -0.29812E+03  3812   0.804E+01    0.281E+01
DAV:   2    -0.148764203822E+04   -0.33923E+02   -0.17546E+02  6048   0.194E+01    0.538E+01
DAV:   3    -0.156354490445E+04   -0.75903E+02   -0.35973E+01  5248   0.229E+01    0.680E+01
DAV:   4    -0.146053125329E+04    0.10301E+03   -0.27750E+01  5784   0.168E+01    0.191E+01
DAV:   5    -0.146225696460E+04   -0.17257E+01   -0.22424E+01  5328   0.680E+00    0.141E+01
DAV:   6    -0.146172870939E+04    0.52826E+00   -0.56633E+00  4984   0.490E+00    0.110E+01
DAV:   7    -0.145973077109E+04    0.19979E+01   -0.36908E+00  5392   0.365E+00    0.717E+00
DAV:   8    -0.145987904170E+04   -0.14827E+00   -0.24403E+00  5952   0.320E+00    0.717E+00
DAV:   9    -0.145971697024E+04    0.16207E+00   -0.90281E-01  5328   0.231E+00    0.533E+00
DAV:  10    -0.145960619455E+04    0.11078E+00   -0.34048E-01  5448   0.158E+00    0.244E+00
DAV:  11    -0.145960610772E+04    0.86827E-04   -0.12907E-01  5376   0.794E-01    0.109E+00
DAV:  12    -0.145960257438E+04    0.35333E-02   -0.38548E-02  5632   0.435E-01    0.662E-01
DAV:  13    -0.145960107370E+04    0.15007E-02   -0.10691E-02  5208   0.227E-01    0.401E-01
DAV:  14    -0.145960008355E+04    0.99015E-03   -0.33426E-03  5240   0.102E-01    0.182E-01
DAV:  15    -0.145960019389E+04   -0.11034E-03   -0.16141E-03  5584   0.624E-02    0.139E-01
DAV:  16    -0.145960023402E+04   -0.40132E-04   -0.52575E-04  5256   0.325E-02    0.118E-01
DAV:  17    -0.145960018659E+04    0.47429E-04   -0.11735E-04  5216   0.194E-02    0.853E-02
DAV:  18    -0.145960017096E+04    0.15635E-04   -0.81599E-05  4784   0.117E-02    0.585E-02
DAV:  19    -0.145960018473E+04   -0.13779E-04   -0.28611E-05  3928   0.863E-03    0.479E-02
DAV:  20    -0.145960018021E+04    0.45236E-05   -0.12534E-05  3168   0.762E-03
  32 F= -.15509341E+04 E0= -.15508442E+04  d E =-.245627E+01
       N       E                     dE             d eps       ncg     rms          rms(c)
DAV:   1    -0.145920421332E+04    0.39597E+00   -0.30559E+02  3812   0.252E+01    0.869E+00
DAV:   2    -0.146185858129E+04   -0.26544E+01   -0.15295E+01  6248   0.552E+00    0.154E+01
DAV:   3    -0.146676299724E+04   -0.49044E+01   -0.49094E+00  5464   0.700E+00    0.175E+01
DAV:   4    -0.145975095967E+04    0.70120E+01   -0.12228E+01  5744   0.534E+00    0.558E+00
DAV:   5    -0.145972998373E+04    0.20976E-01   -0.12830E+00  5400   0.212E+00    0.302E+00
DAV:   6    -0.145979984472E+04   -0.69861E-01   -0.48872E-01  5192   0.159E+00    0.237E+00
DAV:   7    -0.145968027424E+04    0.11957E+00   -0.28638E-01  5016   0.113E+00    0.156E+00
DAV:   8    -0.145967753432E+04    0.27399E-02   -0.87533E-02  5456   0.793E-01    0.154E+00
DAV:   9    -0.145966564496E+04    0.11889E-01   -0.40662E-02  5680   0.517E-01    0.995E-01
DAV:  10    -0.145965880974E+04    0.68352E-02   -0.12060E-02  5520   0.296E-01    0.332E-01
DAV:  11    -0.145966009551E+04   -0.12858E-02   -0.52208E-03  5344   0.145E-01    0.192E-01
DAV:  12    -0.145965985094E+04    0.24456E-03   -0.88403E-04  5024   0.814E-02    0.996E-02
DAV:  13    -0.145965988286E+04   -0.31916E-04   -0.39475E-04  5280   0.323E-02    0.716E-02
DAV:  14    -0.145965990198E+04   -0.19117E-04   -0.13033E-04  5256   0.200E-02    0.512E-02
DAV:  15    -0.145965988370E+04    0.18281E-04   -0.56589E-05  4368   0.131E-02    0.408E-02
DAV:  16    -0.145965988011E+04    0.35904E-05   -0.11109E-05  3112   0.552E-03
  33 F= -.15510137E+04 E0= -.15509278E+04  d E =-.253584E+01
       N       E                     dE             d eps       ncg     rms          rms(c)
DAV:   1    -0.146068367733E+04   -0.10238E+01   -0.19520E+02  3828   0.195E+01    0.105E+01
DAV:   2    -0.146303661337E+04   -0.23529E+01   -0.94040E+00  6016   0.458E+00    0.147E+01
DAV:   3    -0.146557840282E+04   -0.25418E+01   -0.48092E+00  5160   0.603E+00    0.133E+01
DAV:   4    -0.146352003431E+04    0.20584E+01   -0.89787E+00  5808   0.638E+00    0.103E+01
DAV:   5    -0.146162559377E+04    0.18944E+01   -0.23317E+00  5904   0.328E+00    0.643E+00
DAV:   6    -0.146286618865E+04   -0.12406E+01   -0.27128E+00  6016   0.349E+00    0.433E+00
DAV:   7    -0.146118692442E+04    0.16793E+01   -0.14378E+00  5456   0.258E+00    0.255E+00
DAV:   8    -0.146108102639E+04    0.10590E+00   -0.23052E-01  5512   0.110E+00    0.166E+00
DAV:   9    -0.146105785835E+04    0.23168E-01   -0.72434E-02  5080   0.608E-01    0.112E+00
DAV:  10    -0.146104671082E+04    0.11148E-01   -0.19969E-02  5288   0.299E-01    0.507E-01
DAV:  11    -0.146104638332E+04    0.32750E-03   -0.69016E-03  5536   0.162E-01    0.367E-01
DAV:  12    -0.146104606046E+04    0.32286E-03   -0.37926E-03  5624   0.126E-01    0.178E-01
DAV:  13    -0.146104617695E+04   -0.11649E-03   -0.13697E-03  4632   0.653E-02    0.891E-02
DAV:  14    -0.146104627344E+04   -0.96496E-04   -0.42165E-04  5920   0.362E-02    0.726E-02
DAV:  15    -0.146104616572E+04    0.10772E-03   -0.19868E-04  5224   0.262E-02    0.437E-02
DAV:  16    -0.146104616327E+04    0.24475E-05   -0.45404E-05  4408   0.952E-03
  34 F= -.15524055E+04 E0= -.15523232E+04  d E =-.139180E+01
       N       E                     dE             d eps       ncg     rms          rms(c)
DAV:   1    -0.146100526158E+04    0.40904E-01   -0.31101E+02  3828   0.246E+01    0.135E+01
DAV:   2    -0.146468542578E+04   -0.36802E+01   -0.15756E+01  6112   0.574E+00    0.190E+01
DAV:   3    -0.147076948404E+04   -0.60841E+01   -0.82352E+00  5248   0.782E+00    0.222E+01
DAV:   4    -0.146527478740E+04    0.54947E+01   -0.28332E+01  5992   0.843E+00    0.134E+01
DAV:   5    -0.146271317751E+04    0.25616E+01   -0.50549E+00  5960   0.416E+00    0.818E+00
DAV:   6    -0.146486380510E+04   -0.21506E+01   -0.46446E+00  6160   0.452E+00    0.592E+00
DAV:   7    -0.146188143668E+04    0.29824E+01   -0.25332E+00  5496   0.339E+00    0.414E+00
DAV:   8    -0.146172316361E+04    0.15827E+00   -0.49868E-01  5608   0.147E+00    0.250E+00
DAV:   9    -0.146164487773E+04    0.78286E-01   -0.11234E-01  5376   0.979E-01    0.207E+00
DAV:  10    -0.146162277375E+04    0.22104E-01   -0.50062E-02  4904   0.515E-01    0.101E+00
DAV:  11    -0.146161590070E+04    0.68731E-02   -0.17232E-02  5392   0.246E-01    0.767E-01
DAV:  12    -0.146160895033E+04    0.69504E-02   -0.15319E-02  6464   0.228E-01    0.373E-01
DAV:  13    -0.146160957125E+04   -0.62093E-03   -0.62292E-03  4760   0.134E-01    0.190E-01
DAV:  14    -0.146160976560E+04   -0.19435E-03   -0.22009E-03  5208   0.810E-02    0.119E-01
DAV:  15    -0.146160980415E+04   -0.38547E-04   -0.61117E-04  5288   0.373E-02    0.766E-02
DAV:  16    -0.146160978455E+04    0.19606E-04   -0.11981E-04  5000   0.183E-02    0.599E-02
DAV:  17    -0.146160974212E+04    0.42428E-04   -0.61774E-05  4040   0.171E-02    0.436E-02
DAV:  18    -0.146160973572E+04    0.63970E-05   -0.36486E-05  4272   0.716E-03    0.388E-02
DAV:  19    -0.146160974366E+04   -0.79389E-05   -0.43802E-06  2416   0.354E-03    0.372E-02
DAV:  20    -0.146160975506E+04   -0.11398E-04   -0.23936E-06  2216   0.230E-03    0.368E-02
DAV:  21    -0.146160976403E+04   -0.89740E-05   -0.12373E-06  2160   0.154E-03    0.368E-02
DAV:  22    -0.146160977593E+04   -0.11898E-04   -0.73185E-07  2160   0.123E-03    0.368E-02
DAV:  23    -0.146160978320E+04   -0.72746E-05   -0.44762E-07  2056   0.774E-04    0.368E-02
DAV:  24    -0.146160979276E+04   -0.95586E-05   -0.31063E-07  2144   0.695E-04    0.367E-02
DAV:  25    -0.146160980659E+04   -0.13829E-04   -0.33890E-07  2144   0.534E-04    0.368E-02
DAV:  26    -0.146160981277E+04   -0.61789E-05   -0.18274E-07  2008   0.514E-04    0.367E-02
DAV:  27    -0.146160981703E+04   -0.42571E-05   -0.12559E-07  2008   0.351E-04
  35 F= -.15529747E+04 E0= -.15528968E+04  d E =-.196105E+01
       N       E                     dE             d eps       ncg     rms          rms(c)
DAV:   1    -0.146266278861E+04   -0.10530E+01   -0.14343E+02  3812   0.169E+01    0.749E+00
DAV:   2    -0.146420959565E+04   -0.15468E+01   -0.66074E+00  6376   0.377E+00    0.127E+01
DAV:   3    -0.146407694207E+04    0.13265E+00   -0.27772E+00  5536   0.420E+00    0.870E+00
DAV:   4    -0.146555034977E+04   -0.14734E+01   -0.69246E+00  5848   0.476E+00    0.921E+00
DAV:   5    -0.146293721043E+04    0.26131E+01   -0.16439E+00  5888   0.337E+00    0.315E+00
DAV:   6    -0.146298889646E+04   -0.51686E-01   -0.35713E-01  5736   0.157E+00    0.170E+00
DAV:   7    -0.146299449077E+04   -0.55943E-02   -0.28725E-01  5040   0.115E+00    0.147E+00
DAV:   8    -0.146288887522E+04    0.10562E+00   -0.10047E-01  5328   0.747E-01    0.769E-01
DAV:   9    -0.146288650017E+04    0.23751E-02   -0.25189E-02  5230   0.359E-01    0.566E-01
DAV:  10    -0.146288517749E+04    0.13227E-02   -0.63361E-03  5448   0.196E-01    0.230E-01
DAV:  11    -0.146288562579E+04   -0.44830E-03   -0.14731E-03  5464   0.974E-02    0.182E-01
DAV:  12    -0.146288544807E+04    0.17772E-03   -0.66556E-04  5600   0.688E-02    0.996E-02
DAV:  13    -0.146288541758E+04    0.30488E-04   -0.24252E-04  5304   0.350E-02    0.608E-02
DAV:  14    -0.146288540779E+04    0.97858E-05   -0.72659E-05  5056   0.133E-02    0.480E-02
DAV:  15    -0.146288539065E+04    0.17141E-04   -0.32243E-05  4008   0.798E-03    0.399E-02
DAV:  16    -0.146288538009E+04    0.10565E-04   -0.56345E-06  2656   0.522E-03    0.384E-02
DAV:  17    -0.146288537369E+04    0.63957E-05   -0.51947E-06  2536   0.333E-03    0.376E-02
DAV:  18    -0.146288537061E+04    0.30824E-05   -0.13704E-06  2152   0.202E-03
  36 F= -.15542573E+04 E0= -.15541830E+04  d E =-.128259E+01
       N       E                     dE             d eps       ncg     rms          rms(c)
DAV:   1    -0.146328352548E+04   -0.39815E+00   -0.12943E+03  3812   0.512E+01    0.224E+01
DAV:   2    -0.148346741840E+04   -0.20184E+02   -0.69049E+01  6304   0.128E+01    0.415E+01
DAV:   3    -0.149463949851E+04   -0.11172E+02   -0.24412E+01  5280   0.143E+01    0.343E+01
DAV:   4    -0.147123179816E+04    0.23408E+02   -0.40801E+01  5576   0.131E+01    0.162E+01
DAV:   5    -0.146749376500E+04    0.37380E+01   -0.19151E+01  5576   0.664E+00    0.920E+00
DAV:   6    -0.146815989104E+04   -0.66613E+00   -0.62305E+00  5688   0.535E+00    0.628E+00
DAV:   7    -0.146566476114E+04    0.24951E+01   -0.32916E+00  5112   0.340E+00    0.428E+00
DAV:   8    -0.146566182634E+04    0.29348E-02   -0.62687E-01  5032   0.163E+00    0.290E+00
DAV:   9    -0.146565485047E+04    0.69759E-02   -0.32350E-01  5728   0.138E+00    0.387E+00
DAV:  10    -0.146554909281E+04    0.10576E+00   -0.84432E-02  5136   0.763E-01    0.134E+00
DAV:  11    -0.146554899584E+04    0.96970E-04   -0.60547E-02  5808   0.435E-01    0.121E+00
DAV:  12    -0.146554351874E+04    0.54771E-02   -0.24818E-02  5376   0.248E-01    0.525E-01
DAV:  13    -0.146554301687E+04    0.50187E-03   -0.62993E-03  5288   0.153E-01    0.338E-01
DAV:  14    -0.146554271015E+04    0.30672E-03   -0.23254E-03  5464   0.933E-02    0.247E-01
DAV:  15    -0.146554266254E+04    0.47610E-04   -0.66825E-04  4800   0.524E-02    0.151E-01
DAV:  16    -0.146554285165E+04   -0.18910E-03   -0.70176E-04  5864   0.437E-02    0.107E-01
DAV:  17    -0.146554260058E+04    0.25107E-03   -0.27554E-04  4984   0.314E-02    0.733E-02
DAV:  18    -0.146554255252E+04    0.48057E-04   -0.96264E-05  5176   0.130E-02    0.574E-02
DAV:  19    -0.146554249655E+04    0.55967E-04   -0.43017E-05  3664   0.122E-02    0.426E-02
DAV:  20    -0.146554247727E+04    0.19279E-04   -0.29484E-05  4192   0.746E-03    0.397E-02
DAV:  21    -0.146554246615E+04    0.11127E-04   -0.62969E-06  2576   0.410E-03    0.387E-02
DAV:  22    -0.146554245722E+04    0.89302E-05   -0.24914E-06  2088   0.224E-03    0.387E-02
DAV:  23    -0.146554244916E+04    0.80514E-05   -0.10304E-06  2064   0.159E-03    0.387E-02
DAV:  24    -0.146554244225E+04    0.69182E-05   -0.44921E-07  2016   0.968E-04    0.386E-02
DAV:  25    -0.146554243406E+04    0.81836E-05   -0.29952E-07  2008   0.789E-04    0.385E-02
DAV:  26    -0.146554242685E+04    0.72151E-05   -0.18670E-07  2008   0.523E-04    0.385E-02
DAV:  27    -0.146554241930E+04    0.75479E-05   -0.11231E-07  2008   0.358E-04    0.385E-02
DAV:  28    -0.146554241371E+04    0.55879E-05   -0.77906E-08  2008   0.277E-04    0.385E-02
DAV:  29    -0.146554240562E+04    0.80880E-05   -0.66420E-08  2008   0.272E-04    0.385E-02
DAV:  30    -0.146554240264E+04    0.29876E-05   -0.45583E-08  2008   0.198E-04
  37 F= -.15569278E+04 E0= -.15568499E+04  d E =-.395303E+01
       N       E                     dE             d eps       ncg     rms          rms(c)
DAV:   1    -0.145483981692E+04    0.10703E+02   -0.52310E+03  3828   0.106E+02    0.428E+01
DAV:   2    -0.153446364242E+04   -0.79624E+02   -0.28967E+02  6056   0.262E+01    0.757E+01
DAV:   3    -0.166355269181E+04   -0.12909E+03   -0.75026E+01  5320   0.306E+01    0.951E+01
DAV:   4    -0.146736378964E+04    0.19619E+03   -0.81525E+01  5608   0.246E+01    0.288E+01
DAV:   5    -0.147263200260E+04   -0.52682E+01   -0.54496E+01  5296   0.103E+01    0.161E+01
DAV:   6    -0.147283108774E+04   -0.19909E+00   -0.21850E+01  5495   0.964E+00    0.138E+01
DAV:   7    -0.146675927904E+04    0.60718E+01   -0.15113E+01  4968   0.625E+00    0.102E+01
DAV:   8    -0.146759650488E+04   -0.83723E+00   -0.44559E+00  5704   0.418E+00    0.157E+01
DAV:   9    -0.146598609753E+04    0.16104E+01   -0.10986E+00  5392   0.278E+00    0.455E+00
DAV:  10    -0.146598931744E+04   -0.32199E-02   -0.60208E-01  5544   0.193E+00    0.287E+00
DAV:  11    -0.146597112593E+04    0.18192E-01   -0.18041E-01  5296   0.102E+00    0.211E+00
DAV:  12    -0.146592086172E+04    0.50264E-01   -0.88185E-02  5344   0.622E-01    0.222E+00
DAV:  13    -0.146590747420E+04    0.13388E-01   -0.27397E-02  5144   0.274E-01    0.128E+00
DAV:  14    -0.146590790313E+04   -0.42892E-03   -0.65772E-03  5536   0.137E-01    0.851E-01
DAV:  15    -0.146590917614E+04   -0.12730E-02   -0.72908E-03  5384   0.169E-01    0.915E-01
DAV:  16    -0.146590537350E+04    0.38026E-02   -0.63336E-03  5280   0.125E-01    0.303E-01
DAV:  17    -0.146590708110E+04   -0.17076E-02   -0.14518E-03  4840   0.558E-02    0.108E-01
DAV:  18    -0.146590706180E+04    0.19302E-04   -0.35046E-04  5320   0.213E-02    0.112E-01
DAV:  19    -0.146590704218E+04    0.19619E-04   -0.10765E-04  5576   0.203E-02    0.137E-01
DAV:  20    -0.146590694422E+04    0.97963E-04   -0.93825E-05  5248   0.168E-02    0.532E-02
DAV:  21    -0.146590695855E+04   -0.14333E-04   -0.28862E-05  3840   0.701E-03    0.451E-02
DAV:  22    -0.146590694631E+04    0.12244E-04   -0.13885E-05  3048   0.640E-03    0.409E-02
DAV:  23    -0.146590694086E+04    0.54477E-05   -0.57798E-06  2240   0.373E-03    0.383E-02
DAV:  24    -0.146590692575E+04    0.15109E-04   -0.36170E-06  2216   0.286E-03    0.399E-02
DAV:  25    -0.146590690873E+04    0.17015E-04   -0.30304E-06  2272   0.263E-03    0.378E-02
DAV:  26    -0.146590690284E+04    0.58985E-05   -0.17232E-06  2112   0.172E-03    0.381E-02
DAV:  27    -0.146590689399E+04    0.88423E-05   -0.75165E-07  2088   0.112E-03    0.377E-02
DAV:  28    -0.146590688603E+04    0.79616E-05   -0.43496E-07  2096   0.105E-03    0.375E-02
DAV:  29    -0.146590687894E+04    0.70937E-05   -0.55400E-07  2112   0.104E-03    0.374E-02
DAV:  30    -0.146590687358E+04    0.53602E-05   -0.32277E-07  2080   0.655E-04    0.374E-02
DAV:  31    -0.146590686151E+04    0.12065E-04   -0.24402E-07  2152   0.515E-04    0.375E-02
DAV:  32    -0.146590686071E+04    0.80001E-06   -0.11209E-07  2080   0.530E-04
  38 F= -.15573000E+04 E0= -.15571920E+04  d E =-.432522E+01
       N       E                     dE             d eps       ncg     rms          rms(c)
DAV:   1    -0.146476753533E+04    0.11393E+01   -0.92676E+02  3812   0.436E+01    0.172E+01
DAV:   2    -0.147674068234E+04   -0.11973E+02   -0.39296E+01  5776   0.107E+01    0.268E+01
DAV:   3    -0.147674063583E+04    0.46506E-04   -0.10674E+01  5008   0.110E+01    0.225E+01
DAV:   4    -0.147768366866E+04   -0.94303E+00   -0.59466E+00  5712   0.102E+01    0.263E+01
DAV:   5    -0.146707665527E+04    0.10607E+02   -0.13114E+01  5568   0.624E+00    0.110E+01
DAV:   6    -0.146645774591E+04    0.61891E+00   -0.15335E+00  5112   0.308E+00    0.445E+00
DAV:   7    -0.146776003993E+04   -0.13023E+01   -0.25740E+00  5224   0.266E+00    0.530E+00
DAV:   8    -0.146663503538E+04    0.11250E+01   -0.13846E+00  5408   0.236E+00    0.239E+00
DAV:   9    -0.146656740548E+04    0.67630E-01   -0.28149E-01  5344   0.134E+00    0.332E+00
DAV:  10    -0.146650135552E+04    0.66050E-01   -0.85226E-02  5088   0.778E-01    0.153E+00
DAV:  11    -0.146650371070E+04   -0.23552E-02   -0.28356E-02  5288   0.439E-01    0.872E-01
DAV:  12    -0.146649594996E+04    0.77607E-02   -0.15972E-02  5216   0.296E-01    0.580E-01
DAV:  13    -0.146649567996E+04    0.27000E-03   -0.73119E-03  6128   0.151E-01    0.251E-01
DAV:  14    -0.146649555141E+04    0.12855E-03   -0.13856E-03  4864   0.830E-02    0.939E-02
DAV:  15    -0.146649581936E+04   -0.26794E-03   -0.59791E-04  5152   0.336E-02    0.109E-01
DAV:  16    -0.146649569740E+04    0.12195E-03   -0.21637E-04  4696   0.264E-02    0.562E-02
DAV:  17    -0.146649573060E+04   -0.33196E-04   -0.76852E-05  4880   0.130E-02    0.518E-02
DAV:  18    -0.146649574232E+04   -0.11718E-04   -0.15424E-05  3088   0.726E-03    0.404E-02
DAV:  19    -0.146649576616E+04   -0.23841E-04   -0.55384E-06  2608   0.471E-03    0.415E-02
DAV:  20    -0.146649578690E+04   -0.20739E-04   -0.39262E-06  2232   0.298E-03    0.391E-02
DAV:  21    -0.146649580228E+04   -0.15383E-04   -0.18305E-06  2184   0.190E-03    0.386E-02
DAV:  22    -0.146649582175E+04   -0.19466E-04   -0.12150E-06  2208   0.139E-03    0.385E-02
DAV:  23    -0.146649583968E+04   -0.17933E-04   -0.82734E-07  2200   0.103E-03    0.386E-02
DAV:  24    -0.146649585204E+04   -0.12360E-04   -0.53525E-07  2056   0.867E-04    0.385E-02
DAV:  25    -0.146649586487E+04   -0.12828E-04   -0.41664E-07  2112   0.678E-04    0.385E-02
DAV:  26    -0.146649587143E+04   -0.65649E-05   -0.24232E-07  2032   0.563E-04    0.385E-02
DAV:  27    -0.146649587615E+04   -0.47182E-05   -0.16128E-07  2032   0.383E-04
  39 F= -.15578880E+04 E0= -.15577944E+04  d E =-.491329E+01
       N       E                     dE             d eps       ncg     rms          rms(c)
DAV:   1    -0.146737795342E+04   -0.88208E+00   -0.61920E+02  3812   0.356E+01    0.182E+01
DAV:   2    -0.148347631556E+04   -0.16098E+02   -0.33886E+01  6240   0.927E+00    0.378E+01
DAV:   3    -0.148863940191E+04   -0.51631E+01   -0.19125E+01  5320   0.115E+01    0.293E+01
DAV:   4    -0.147269944779E+04    0.15940E+02   -0.13613E+01  5344   0.108E+01    0.162E+01
DAV:   5    -0.147013248110E+04    0.25670E+01   -0.11720E+01  5680   0.617E+00    0.102E+01
DAV:   6    -0.146992813814E+04    0.20434E+00   -0.28977E+00  5368   0.484E+00    0.667E+00
DAV:   7    -0.146897708830E+04    0.95105E+00   -0.23895E+00  5032   0.352E+00    0.438E+00
DAV:   8    -0.146853838540E+04    0.43870E+00   -0.10388E+00  5440   0.199E+00    0.263E+00
DAV:   9    -0.146844028452E+04    0.98101E-01   -0.26711E-01  5160   0.119E+00    0.248E+00
DAV:  10    -0.146842768135E+04    0.12603E-01   -0.69078E-02  5072   0.506E-01    0.126E+00
DAV:  11    -0.146841484310E+04    0.12838E-01   -0.26121E-02  5440   0.347E-01    0.850E-01
DAV:  12    -0.146841325989E+04    0.15832E-02   -0.16924E-02  6048   0.280E-01    0.465E-01
DAV:  13    -0.146841286373E+04    0.39616E-03   -0.43915E-03  4832   0.142E-01    0.170E-01
DAV:  14    -0.146841303487E+04   -0.17113E-03   -0.15756E-03  5976   0.680E-02    0.202E-01
DAV:  15    -0.146841287590E+04    0.15896E-03   -0.65347E-04  5200   0.448E-02    0.101E-01
DAV:  16    -0.146841293574E+04   -0.59832E-04   -0.18939E-04  5008   0.225E-02    0.551E-02
DAV:  17    -0.146841292524E+04    0.10495E-04   -0.88040E-05  4600   0.148E-02    0.520E-02
DAV:  18    -0.146841291408E+04    0.11161E-04   -0.16542E-05  3456   0.720E-03    0.388E-02
DAV:  19    -0.146841291668E+04   -0.25956E-05   -0.41254E-06  2336   0.333E-03
  40 F= -.15597901E+04 E0= -.15596863E+04  d E =-.190206E+01
