<?xml version="1.0" encoding="ISO-8859-1"?>
<modeling>
 <generator>
  <i name="program" type="string">vasp </i>
  <i name="version" type="string">6.2.1  </i>
  <i name="subversion" type="string">16May21 (build Jun 16 2021 03:23:30) complex                          parallel </i>
  <i name="platform" type="string">LinuxPGI </i>
  <i name="date" type="string">2022 04 25 </i>
  <i name="time" type="string">11:32:41 </i>
 </generator>
 <incar>
  <i type="string" name="SYSTEM">NiAl</i>
  <i type="int" name="ISTART">     0</i>
  <i type="int" name="NELMIN">     6</i>
  <i type="int" name="IBRION">     2</i>
  <i name="EDIFF">      0.00000500</i>
  <i type="int" name="NSW">    40</i>
  <i type="int" name="ISIF">     1</i>
  <i name="ENCUT">    360.00000000</i>
  <i name="POTIM">      0.20000000</i>
  <i type="string" name="LREAL">Auto</i>
  <i type="logical" name="LPLANE"> T  </i>
  <i type="int" name="ISMEAR">     0</i>
  <i name="SIGMA">      0.05000000</i>
  <i type="logical" name="LWAVE"> F  </i>
  <i type="logical" name="LCHARG"> F  </i>
  <i type="int" name="IVDW">    12</i>
 </incar>
 <primitive_cell>
  <structure name="primitive_cell" >
   <crystal>
    <varray name="basis" >
     <v>       0.00000000     -17.18057346       0.00000000 </v>
     <v>       0.00000000      -8.59028673     -14.87881307 </v>
     <v>      30.00000000       0.00000000       0.00000000 </v>
    </varray>
    <i name="volume">   7668.79622957 </i>
    <varray name="rec_basis" >
     <v>       0.00000000      -0.05820527       0.03360483 </v>
     <v>       0.00000000       0.00000000      -0.06720966 </v>
     <v>       0.03333333       0.00000000       0.00000000 </v>
    </varray>
   </crystal>
   <varray name="positions" >
    <v>       0.44444444       0.44444444       0.07873473 </v>
    <v>       0.44444444       0.77777778       0.07873473 </v>
    <v>       0.44444444       0.11111111       0.07873473 </v>
    <v>       0.77777778       0.44444444       0.07873473 </v>
    <v>       0.77777778       0.77777778       0.07873473 </v>
    <v>       0.77777778       0.11111111       0.07873473 </v>
    <v>       0.11111111       0.44444444       0.07873473 </v>
    <v>       0.11111111       0.77777778       0.07873473 </v>
    <v>       0.11111111       0.11111111       0.07873473 </v>
    <v>       0.55555556       0.55555556       0.15702584 </v>
    <v>       0.55555556       0.88888889       0.15702584 </v>
    <v>       0.55555556       0.22222222       0.15702584 </v>
    <v>       0.88888889       0.55555556       0.15702584 </v>
    <v>       0.88888889       0.88888889       0.15702584 </v>
    <v>       0.88888889       0.22222222       0.15702584 </v>
    <v>       0.22222222       0.55555556       0.15702584 </v>
    <v>       0.22222222       0.88888889       0.15702584 </v>
    <v>       0.22222222       0.22222222       0.15702584 </v>
    <v>       0.66666667       0.66666667       0.23375740 </v>
    <v>       0.66666667       0.00000000       0.23375740 </v>
    <v>       0.66666667       0.33333333       0.23375740 </v>
    <v>       0.00000000       0.66666667       0.23375740 </v>
    <v>       0.00000000       0.00000000       0.23375740 </v>
    <v>       0.00000000       0.33333333       0.23375740 </v>
    <v>       0.33333333       0.66666667       0.23375740 </v>
    <v>       0.33333333       0.00000000       0.23375740 </v>
    <v>       0.33333333       0.33333333       0.23375740 </v>
    <v>       0.77777778       0.77777778       0.31173066 </v>
    <v>       0.77777778       0.11111111       0.31173066 </v>
    <v>       0.77777778       0.44444444       0.31173066 </v>
    <v>       0.11111111       0.77777778       0.31173066 </v>
    <v>       0.11111111       0.11111111       0.31173066 </v>
    <v>       0.11111111       0.44444444       0.31173066 </v>
    <v>       0.44444444       0.77777778       0.31173066 </v>
    <v>       0.44444444       0.11111111       0.31173066 </v>
    <v>       0.44444444       0.44444444       0.31173066 </v>
    <v>       0.88888889       0.88888889       0.38970391 </v>
    <v>       0.88888889       0.22222222       0.38970391 </v>
    <v>       0.88888889       0.55555556       0.38970391 </v>
    <v>       0.22222222       0.88888889       0.38970391 </v>
    <v>       0.22222222       0.22222222       0.38970391 </v>
    <v>       0.22222222       0.55555556       0.38970391 </v>
    <v>       0.55555556       0.88888889       0.38970391 </v>
    <v>       0.55555556       0.22222222       0.38970391 </v>
    <v>       0.55555556       0.55555556       0.38970391 </v>
    <v>       0.00000000       0.00000000       0.46643547 </v>
    <v>       0.00000000       0.33333333       0.46643547 </v>
    <v>       0.00000000       0.66666667       0.46643547 </v>
    <v>       0.33333333       0.00000000       0.46643547 </v>
    <v>       0.33333333       0.33333333       0.46643547 </v>
    <v>       0.33333333       0.66666667       0.46643547 </v>
    <v>       0.66666667       0.00000000       0.46643547 </v>
    <v>       0.66666667       0.33333333       0.46643547 </v>
    <v>       0.66666667       0.66666667       0.46643547 </v>
    <v>       0.11111111       0.11111111       0.54472658 </v>
    <v>       0.11111111       0.44444444       0.54472658 </v>
    <v>       0.11111111       0.77777778       0.54472658 </v>
    <v>       0.44444444       0.11111111       0.54472658 </v>
    <v>       0.44444444       0.44444444       0.54472658 </v>
    <v>       0.44444444       0.77777778       0.54472658 </v>
    <v>       0.77777778       0.11111111       0.54472658 </v>
    <v>       0.77777778       0.44444444       0.54472658 </v>
    <v>       0.77777778       0.77777778       0.54472658 </v>
    <v>       0.27777778       0.27777778       0.07873473 </v>
    <v>       0.27777778       0.61111111       0.07873473 </v>
    <v>       0.27777778       0.94444444       0.07873473 </v>
    <v>       0.61111111       0.27777778       0.07873473 </v>
    <v>       0.61111111       0.61111111       0.07873473 </v>
    <v>       0.61111111       0.94444444       0.07873473 </v>
    <v>       0.94444444       0.27777778       0.07873473 </v>
    <v>       0.94444444       0.61111111       0.07873473 </v>
    <v>       0.94444444       0.94444444       0.07873473 </v>
    <v>       0.38888889       0.38888889       0.15702584 </v>
    <v>       0.38888889       0.72222222       0.15702584 </v>
    <v>       0.38888889       0.05555556       0.15702584 </v>
    <v>       0.72222222       0.38888889       0.15702584 </v>
    <v>       0.72222222       0.72222222       0.15702584 </v>
    <v>       0.72222222       0.05555556       0.15702584 </v>
    <v>       0.05555556       0.38888889       0.15702584 </v>
    <v>       0.05555556       0.72222222       0.15702584 </v>
    <v>       0.05555556       0.05555556       0.15702584 </v>
    <v>       0.50000000       0.50000000       0.23375740 </v>
    <v>       0.50000000       0.83333333       0.23375740 </v>
    <v>       0.50000000       0.16666667       0.23375740 </v>
    <v>       0.83333333       0.50000000       0.23375740 </v>
    <v>       0.83333333       0.83333333       0.23375740 </v>
    <v>       0.83333333       0.16666667       0.23375740 </v>
    <v>       0.16666667       0.50000000       0.23375740 </v>
    <v>       0.16666667       0.83333333       0.23375740 </v>
    <v>       0.16666667       0.16666667       0.23375740 </v>
    <v>       0.61111111       0.61111111       0.31173066 </v>
    <v>       0.61111111       0.94444444       0.31173066 </v>
    <v>       0.61111111       0.27777778       0.31173066 </v>
    <v>       0.94444444       0.61111111       0.31173066 </v>
    <v>       0.94444444       0.94444444       0.31173066 </v>
    <v>       0.94444444       0.27777778       0.31173066 </v>
    <v>       0.27777778       0.61111111       0.31173066 </v>
    <v>       0.27777778       0.94444444       0.31173066 </v>
    <v>       0.27777778       0.27777778       0.31173066 </v>
    <v>       0.72222222       0.72222222       0.38970391 </v>
    <v>       0.72222222       0.05555556       0.38970391 </v>
    <v>       0.72222222       0.38888889       0.38970391 </v>
    <v>       0.05555556       0.72222222       0.38970391 </v>
    <v>       0.05555556       0.05555556       0.38970391 </v>
    <v>       0.05555556       0.38888889       0.38970391 </v>
    <v>       0.38888889       0.72222222       0.38970391 </v>
    <v>       0.38888889       0.05555556       0.38970391 </v>
    <v>       0.38888889       0.38888889       0.38970391 </v>
    <v>       0.83333333       0.83333333       0.46643547 </v>
    <v>       0.83333333       0.16666667       0.46643547 </v>
    <v>       0.83333333       0.50000000       0.46643547 </v>
    <v>       0.16666667       0.83333333       0.46643547 </v>
    <v>       0.16666667       0.16666667       0.46643547 </v>
    <v>       0.16666667       0.50000000       0.46643547 </v>
    <v>       0.50000000       0.83333333       0.46643547 </v>
    <v>       0.50000000       0.16666667       0.46643547 </v>
    <v>       0.50000000       0.50000000       0.46643547 </v>
    <v>       0.94444444       0.94444444       0.54472658 </v>
    <v>       0.94444444       0.27777778       0.54472658 </v>
    <v>       0.94444444       0.61111111       0.54472658 </v>
    <v>       0.27777778       0.94444444       0.54472658 </v>
    <v>       0.27777778       0.27777778       0.54472658 </v>
    <v>       0.27777778       0.61111111       0.54472658 </v>
    <v>       0.61111111       0.94444444       0.54472658 </v>
    <v>       0.61111111       0.27777778       0.54472658 </v>
    <v>       0.61111111       0.61111111       0.54472658 </v>
    <v>       0.27777778       0.44444444       0.07873473 </v>
    <v>       0.27777778       0.77777778       0.07873473 </v>
    <v>       0.27777778       0.11111111       0.07873473 </v>
    <v>       0.61111111       0.44444444       0.07873473 </v>
    <v>       0.61111111       0.77777778       0.07873473 </v>
    <v>       0.61111111       0.11111111       0.07873473 </v>
    <v>       0.94444444       0.44444444       0.07873473 </v>
    <v>       0.94444444       0.77777778       0.07873473 </v>
    <v>       0.94444444       0.11111111       0.07873473 </v>
    <v>       0.38888889       0.55555556       0.15702584 </v>
    <v>       0.38888889       0.88888889       0.15702584 </v>
    <v>       0.38888889       0.22222222       0.15702584 </v>
    <v>       0.72222222       0.55555556       0.15702584 </v>
    <v>       0.72222222       0.88888889       0.15702584 </v>
    <v>       0.72222222       0.22222222       0.15702584 </v>
    <v>       0.05555556       0.55555556       0.15702584 </v>
    <v>       0.05555556       0.88888889       0.15702584 </v>
    <v>       0.05555556       0.22222222       0.15702584 </v>
    <v>       0.50000000       0.66666667       0.23375740 </v>
    <v>       0.50000000       0.00000000       0.23375740 </v>
    <v>       0.50000000       0.33333333       0.23375740 </v>
    <v>       0.83333333       0.66666667       0.23375740 </v>
    <v>       0.83333333       0.00000000       0.23375740 </v>
    <v>       0.83333333       0.33333333       0.23375740 </v>
    <v>       0.16666667       0.66666667       0.23375740 </v>
    <v>       0.16666667       0.00000000       0.23375740 </v>
    <v>       0.16666667       0.33333333       0.23375740 </v>
    <v>       0.61111111       0.77777778       0.31173066 </v>
    <v>       0.61111111       0.11111111       0.31173066 </v>
    <v>       0.61111111       0.44444444       0.31173066 </v>
    <v>       0.94444444       0.77777778       0.31173066 </v>
    <v>       0.94444444       0.11111111       0.31173066 </v>
    <v>       0.94444444       0.44444444       0.31173066 </v>
    <v>       0.27777778       0.77777778       0.31173066 </v>
    <v>       0.27777778       0.11111111       0.31173066 </v>
    <v>       0.27777778       0.44444444       0.31173066 </v>
    <v>       0.72222222       0.88888889       0.38970391 </v>
    <v>       0.72222222       0.22222222       0.38970391 </v>
    <v>       0.72222222       0.55555556       0.38970391 </v>
    <v>       0.05555556       0.88888889       0.38970391 </v>
    <v>       0.05555556       0.22222222       0.38970391 </v>
    <v>       0.05555556       0.55555556       0.38970391 </v>
    <v>       0.38888889       0.88888889       0.38970391 </v>
    <v>       0.38888889       0.22222222       0.38970391 </v>
    <v>       0.38888889       0.55555556       0.38970391 </v>
    <v>       0.83333333       0.00000000       0.46643547 </v>
    <v>       0.83333333       0.33333333       0.46643547 </v>
    <v>       0.83333333       0.66666667       0.46643547 </v>
    <v>       0.16666667       0.00000000       0.46643547 </v>
    <v>       0.16666667       0.33333333       0.46643547 </v>
    <v>       0.16666667       0.66666667       0.46643547 </v>
    <v>       0.50000000       0.00000000       0.46643547 </v>
    <v>       0.50000000       0.33333333       0.46643547 </v>
    <v>       0.50000000       0.66666667       0.46643547 </v>
    <v>       0.94444444       0.11111111       0.54472658 </v>
    <v>       0.94444444       0.44444444       0.54472658 </v>
    <v>       0.94444444       0.77777778       0.54472658 </v>
    <v>       0.27777778       0.11111111       0.54472658 </v>
    <v>       0.27777778       0.44444444       0.54472658 </v>
    <v>       0.27777778       0.77777778       0.54472658 </v>
    <v>       0.61111111       0.11111111       0.54472658 </v>
    <v>       0.61111111       0.44444444       0.54472658 </v>
    <v>       0.61111111       0.77777778       0.54472658 </v>
    <v>       0.44444444       0.27777778       0.07873473 </v>
    <v>       0.44444444       0.61111111       0.07873473 </v>
    <v>       0.44444444       0.94444444       0.07873473 </v>
    <v>       0.77777778       0.27777778       0.07873473 </v>
    <v>       0.77777778       0.61111111       0.07873473 </v>
    <v>       0.77777778       0.94444444       0.07873473 </v>
    <v>       0.11111111       0.27777778       0.07873473 </v>
    <v>       0.11111111       0.61111111       0.07873473 </v>
    <v>       0.11111111       0.94444444       0.07873473 </v>
    <v>       0.55555556       0.38888889       0.15702584 </v>
    <v>       0.55555556       0.72222222       0.15702584 </v>
    <v>       0.55555556       0.05555556       0.15702584 </v>
    <v>       0.88888889       0.38888889       0.15702584 </v>
    <v>       0.88888889       0.72222222       0.15702584 </v>
    <v>       0.88888889       0.05555556       0.15702584 </v>
    <v>       0.22222222       0.38888889       0.15702584 </v>
    <v>       0.22222222       0.72222222       0.15702584 </v>
    <v>       0.22222222       0.05555556       0.15702584 </v>
    <v>       0.66666667       0.50000000       0.23375740 </v>
    <v>       0.66666667       0.83333333       0.23375740 </v>
    <v>       0.66666667       0.16666667       0.23375740 </v>
    <v>       0.00000000       0.50000000       0.23375740 </v>
    <v>       0.00000000       0.83333333       0.23375740 </v>
    <v>       0.00000000       0.16666667       0.23375740 </v>
    <v>       0.33333333       0.50000000       0.23375740 </v>
    <v>       0.33333333       0.83333333       0.23375740 </v>
    <v>       0.33333333       0.16666667       0.23375740 </v>
    <v>       0.77777778       0.61111111       0.31173066 </v>
    <v>       0.77777778       0.94444444       0.31173066 </v>
    <v>       0.77777778       0.27777778       0.31173066 </v>
    <v>       0.11111111       0.61111111       0.31173066 </v>
    <v>       0.11111111       0.94444444       0.31173066 </v>
    <v>       0.11111111       0.27777778       0.31173066 </v>
    <v>       0.44444444       0.61111111       0.31173066 </v>
    <v>       0.44444444       0.94444444       0.31173066 </v>
    <v>       0.44444444       0.27777778       0.31173066 </v>
    <v>       0.88888889       0.72222222       0.38970391 </v>
    <v>       0.88888889       0.05555556       0.38970391 </v>
    <v>       0.88888889       0.38888889       0.38970391 </v>
    <v>       0.22222222       0.72222222       0.38970391 </v>
    <v>       0.22222222       0.05555556       0.38970391 </v>
    <v>       0.22222222       0.38888889       0.38970391 </v>
    <v>       0.55555556       0.72222222       0.38970391 </v>
    <v>       0.55555556       0.05555556       0.38970391 </v>
    <v>       0.55555556       0.38888889       0.38970391 </v>
    <v>       0.00000000       0.83333333       0.46643547 </v>
    <v>       0.00000000       0.16666667       0.46643547 </v>
    <v>       0.00000000       0.50000000       0.46643547 </v>
    <v>       0.33333333       0.83333333       0.46643547 </v>
    <v>       0.33333333       0.16666667       0.46643547 </v>
    <v>       0.33333333       0.50000000       0.46643547 </v>
    <v>       0.66666667       0.83333333       0.46643547 </v>
    <v>       0.66666667       0.16666667       0.46643547 </v>
    <v>       0.66666667       0.50000000       0.46643547 </v>
    <v>       0.11111111       0.94444444       0.54472658 </v>
    <v>       0.11111111       0.27777778       0.54472658 </v>
    <v>       0.11111111       0.61111111       0.54472658 </v>
    <v>       0.44444444       0.94444444       0.54472658 </v>
    <v>       0.44444444       0.27777778       0.54472658 </v>
    <v>       0.44444444       0.61111111       0.54472658 </v>
    <v>       0.77777778       0.94444444       0.54472658 </v>
    <v>       0.77777778       0.27777778       0.54472658 </v>
    <v>       0.77777778       0.61111111       0.54472658 </v>
    <v>       0.38888889       0.55555556       0.59000000 </v>
   </varray>
  </structure>
  <varray name="primitive_index" >
   <v type="int" >        1 </v>
   <v type="int" >        2 </v>
   <v type="int" >        3 </v>
   <v type="int" >        4 </v>
   <v type="int" >        5 </v>
   <v type="int" >        6 </v>
   <v type="int" >        7 </v>
   <v type="int" >        8 </v>
   <v type="int" >        9 </v>
   <v type="int" >       10 </v>
   <v type="int" >       11 </v>
   <v type="int" >       12 </v>
   <v type="int" >       13 </v>
   <v type="int" >       14 </v>
   <v type="int" >       15 </v>
   <v type="int" >       16 </v>
   <v type="int" >       17 </v>
   <v type="int" >       18 </v>
   <v type="int" >       19 </v>
   <v type="int" >       20 </v>
   <v type="int" >       21 </v>
   <v type="int" >       22 </v>
   <v type="int" >       23 </v>
   <v type="int" >       24 </v>
   <v type="int" >       25 </v>
   <v type="int" >       26 </v>
   <v type="int" >       27 </v>
   <v type="int" >       28 </v>
   <v type="int" >       29 </v>
   <v type="int" >       30 </v>
   <v type="int" >       31 </v>
   <v type="int" >       32 </v>
   <v type="int" >       33 </v>
   <v type="int" >       34 </v>
   <v type="int" >       35 </v>
   <v type="int" >       36 </v>
   <v type="int" >       37 </v>
   <v type="int" >       38 </v>
   <v type="int" >       39 </v>
   <v type="int" >       40 </v>
   <v type="int" >       41 </v>
   <v type="int" >       42 </v>
   <v type="int" >       43 </v>
   <v type="int" >       44 </v>
   <v type="int" >       45 </v>
   <v type="int" >       46 </v>
   <v type="int" >       47 </v>
   <v type="int" >       48 </v>
   <v type="int" >       49 </v>
   <v type="int" >       50 </v>
   <v type="int" >       51 </v>
   <v type="int" >       52 </v>
   <v type="int" >       53 </v>
   <v type="int" >       54 </v>
   <v type="int" >       55 </v>
   <v type="int" >       56 </v>
   <v type="int" >       57 </v>
   <v type="int" >       58 </v>
   <v type="int" >       59 </v>
   <v type="int" >       60 </v>
   <v type="int" >       61 </v>
   <v type="int" >       62 </v>
   <v type="int" >       63 </v>
   <v type="int" >       64 </v>
   <v type="int" >       65 </v>
   <v type="int" >       66 </v>
   <v type="int" >       67 </v>
   <v type="int" >       68 </v>
   <v type="int" >       69 </v>
   <v type="int" >       70 </v>
   <v type="int" >       71 </v>
   <v type="int" >       72 </v>
   <v type="int" >       73 </v>
   <v type="int" >       74 </v>
   <v type="int" >       75 </v>
   <v type="int" >       76 </v>
   <v type="int" >       77 </v>
   <v type="int" >       78 </v>
   <v type="int" >       79 </v>
   <v type="int" >       80 </v>
   <v type="int" >       81 </v>
   <v type="int" >       82 </v>
   <v type="int" >       83 </v>
   <v type="int" >       84 </v>
   <v type="int" >       85 </v>
   <v type="int" >       86 </v>
   <v type="int" >       87 </v>
   <v type="int" >       88 </v>
   <v type="int" >       89 </v>
   <v type="int" >       90 </v>
   <v type="int" >       91 </v>
   <v type="int" >       92 </v>
   <v type="int" >       93 </v>
   <v type="int" >       94 </v>
   <v type="int" >       95 </v>
   <v type="int" >       96 </v>
   <v type="int" >       97 </v>
   <v type="int" >       98 </v>
   <v type="int" >       99 </v>
   <v type="int" >      100 </v>
   <v type="int" >      101 </v>
   <v type="int" >      102 </v>
   <v type="int" >      103 </v>
   <v type="int" >      104 </v>
   <v type="int" >      105 </v>
   <v type="int" >      106 </v>
   <v type="int" >      107 </v>
   <v type="int" >      108 </v>
   <v type="int" >      109 </v>
   <v type="int" >      110 </v>
   <v type="int" >      111 </v>
   <v type="int" >      112 </v>
   <v type="int" >      113 </v>
   <v type="int" >      114 </v>
   <v type="int" >      115 </v>
   <v type="int" >      116 </v>
   <v type="int" >      117 </v>
   <v type="int" >      118 </v>
   <v type="int" >      119 </v>
   <v type="int" >      120 </v>
   <v type="int" >      121 </v>
   <v type="int" >      122 </v>
   <v type="int" >      123 </v>
   <v type="int" >      124 </v>
   <v type="int" >      125 </v>
   <v type="int" >      126 </v>
   <v type="int" >      127 </v>
   <v type="int" >      128 </v>
   <v type="int" >      129 </v>
   <v type="int" >      130 </v>
   <v type="int" >      131 </v>
   <v type="int" >      132 </v>
   <v type="int" >      133 </v>
   <v type="int" >      134 </v>
   <v type="int" >      135 </v>
   <v type="int" >      136 </v>
   <v type="int" >      137 </v>
   <v type="int" >      138 </v>
   <v type="int" >      139 </v>
   <v type="int" >      140 </v>
   <v type="int" >      141 </v>
   <v type="int" >      142 </v>
   <v type="int" >      143 </v>
   <v type="int" >      144 </v>
   <v type="int" >      145 </v>
   <v type="int" >      146 </v>
   <v type="int" >      147 </v>
   <v type="int" >      148 </v>
   <v type="int" >      149 </v>
   <v type="int" >      150 </v>
   <v type="int" >      151 </v>
   <v type="int" >      152 </v>
   <v type="int" >      153 </v>
   <v type="int" >      154 </v>
   <v type="int" >      155 </v>
   <v type="int" >      156 </v>
   <v type="int" >      157 </v>
   <v type="int" >      158 </v>
   <v type="int" >      159 </v>
   <v type="int" >      160 </v>
   <v type="int" >      161 </v>
   <v type="int" >      162 </v>
   <v type="int" >      163 </v>
   <v type="int" >      164 </v>
   <v type="int" >      165 </v>
   <v type="int" >      166 </v>
   <v type="int" >      167 </v>
   <v type="int" >      168 </v>
   <v type="int" >      169 </v>
   <v type="int" >      170 </v>
   <v type="int" >      171 </v>
   <v type="int" >      172 </v>
   <v type="int" >      173 </v>
   <v type="int" >      174 </v>
   <v type="int" >      175 </v>
   <v type="int" >      176 </v>
   <v type="int" >      177 </v>
   <v type="int" >      178 </v>
   <v type="int" >      179 </v>
   <v type="int" >      180 </v>
   <v type="int" >      181 </v>
   <v type="int" >      182 </v>
   <v type="int" >      183 </v>
   <v type="int" >      184 </v>
   <v type="int" >      185 </v>
   <v type="int" >      186 </v>
   <v type="int" >      187 </v>
   <v type="int" >      188 </v>
   <v type="int" >      189 </v>
   <v type="int" >      190 </v>
   <v type="int" >      191 </v>
   <v type="int" >      192 </v>
   <v type="int" >      193 </v>
   <v type="int" >      194 </v>
   <v type="int" >      195 </v>
   <v type="int" >      196 </v>
   <v type="int" >      197 </v>
   <v type="int" >      198 </v>
   <v type="int" >      199 </v>
   <v type="int" >      200 </v>
   <v type="int" >      201 </v>
   <v type="int" >      202 </v>
   <v type="int" >      203 </v>
   <v type="int" >      204 </v>
   <v type="int" >      205 </v>
   <v type="int" >      206 </v>
   <v type="int" >      207 </v>
   <v type="int" >      208 </v>
   <v type="int" >      209 </v>
   <v type="int" >      210 </v>
   <v type="int" >      211 </v>
   <v type="int" >      212 </v>
   <v type="int" >      213 </v>
   <v type="int" >      214 </v>
   <v type="int" >      215 </v>
   <v type="int" >      216 </v>
   <v type="int" >      217 </v>
   <v type="int" >      218 </v>
   <v type="int" >      219 </v>
   <v type="int" >      220 </v>
   <v type="int" >      221 </v>
   <v type="int" >      222 </v>
   <v type="int" >      223 </v>
   <v type="int" >      224 </v>
   <v type="int" >      225 </v>
   <v type="int" >      226 </v>
   <v type="int" >      227 </v>
   <v type="int" >      228 </v>
   <v type="int" >      229 </v>
   <v type="int" >      230 </v>
   <v type="int" >      231 </v>
   <v type="int" >      232 </v>
   <v type="int" >      233 </v>
   <v type="int" >      234 </v>
   <v type="int" >      235 </v>
   <v type="int" >      236 </v>
   <v type="int" >      237 </v>
   <v type="int" >      238 </v>
   <v type="int" >      239 </v>
   <v type="int" >      240 </v>
   <v type="int" >      241 </v>
   <v type="int" >      242 </v>
   <v type="int" >      243 </v>
   <v type="int" >      244 </v>
   <v type="int" >      245 </v>
   <v type="int" >      246 </v>
   <v type="int" >      247 </v>
   <v type="int" >      248 </v>
   <v type="int" >      249 </v>
   <v type="int" >      250 </v>
   <v type="int" >      251 </v>
   <v type="int" >      252 </v>
   <v type="int" >      253 </v>
  </varray>
 </primitive_cell>
 <kpoints>
  <generation param="Gamma">
   <v type="int" name="divisions">       2        2        1 </v>
   <v name="usershift">      0.00000000       0.00000000       0.00000000 </v>
   <v name="genvec1">      0.50000000       0.00000000       0.00000000 </v>
   <v name="genvec2">      0.00000000       0.50000000       0.00000000 </v>
   <v name="genvec3">      0.00000000       0.00000000       1.00000000 </v>
   <v name="shift">      0.00000000       0.00000000       0.00000000 </v>
  </generation>
  <varray name="kpointlist" >
   <v>       0.00000000       0.00000000       0.00000000 </v>
   <v>       0.50000000       0.00000000       0.00000000 </v>
  </varray>
  <varray name="weights" >
   <v>       0.25000000 </v>
   <v>       0.75000000 </v>
  </varray>
 </kpoints>
 <parameters>
  <separator name="general" >
   <i type="string" name="SYSTEM">NiAl</i>
   <i type="logical" name="LCOMPAT"> F  </i>
  </separator>
  <separator name="electronic" >
   <i type="string" name="PREC">normal</i>
   <i name="ENMAX">    360.00000000</i>
   <i name="ENAUG">   1139.60900000</i>
   <i name="EDIFF">      0.00000500</i>
   <i type="int" name="IALGO">    38</i>
   <i type="int" name="IWAVPR">    11</i>
   <i type="int" name="NBANDS">   508</i>
   <i type="int" name="NBANDSLOW">    -1</i>
   <i type="int" name="NBANDSHIGH">    -1</i>
   <i name="NELECT">    762.00000000</i>
   <i type="int" name="TURBO">     0</i>
   <i type="int" name="IRESTART">     0</i>
   <i type="int" name="NREBOOT">     0</i>
   <i type="int" name="NMIN">     0</i>
   <i name="EREF">      0.00000000</i>
   <separator name="electronic smearing" >
    <i type="int" name="ISMEAR">     0</i>
    <i name="SIGMA">      0.05000000</i>
    <i name="KSPACING">      0.50000000</i>
    <i type="logical" name="KGAMMA"> T  </i>
    <i type="logical" name="KBLOWUP"> T  </i>
   </separator>
   <separator name="electronic projectors" >
    <i type="logical" name="LREAL"> T  </i>
    <v name="ROPT">     -0.00050000     -0.00050000</v>
    <i type="int" name="LMAXPAW">  -100</i>
    <i type="int" name="LMAXMIX">     2</i>
    <i type="logical" name="NLSPLINE"> F  </i>
   </separator>
   <separator name="electronic startup" >
    <i type="int" name="ISTART">     0</i>
    <i type="int" name="ICHARG">     2</i>
    <i type="int" name="INIWAV">     1</i>
   </separator>
   <separator name="electronic spin" >
    <i type="int" name="ISPIN">     1</i>
    <i type="logical" name="LNONCOLLINEAR"> F  </i>
    <v name="MAGMOM">      1.00000000      1.00000000      1.00000000      1.00000000      1.00000000      1.00000000      1.00000000      1.00000000      1.00000000      1.00000000      1.00000000      1.00000000      1.00000000      1.00000000      1.00000000      1.00000000      1.00000000      1.00000000      1.00000000      1.00000000
      1.00000000      1.00000000      1.00000000      1.00000000      1.00000000      1.00000000      1.00000000      1.00000000      1.00000000      1.00000000      1.00000000      1.00000000      1.00000000      1.00000000      1.00000000      1.00000000      1.00000000      1.00000000      1.00000000      1.00000000
      1.00000000      1.00000000      1.00000000      1.00000000      1.00000000      1.00000000      1.00000000      1.00000000      1.00000000      1.00000000      1.00000000      1.00000000      1.00000000      1.00000000      1.00000000      1.00000000      1.00000000      1.00000000      1.00000000      1.00000000
      1.00000000      1.00000000      1.00000000      1.00000000      1.00000000      1.00000000      1.00000000      1.00000000      1.00000000      1.00000000      1.00000000      1.00000000      1.00000000      1.00000000      1.00000000      1.00000000      1.00000000      1.00000000      1.00000000      1.00000000
      1.00000000      1.00000000      1.00000000      1.00000000      1.00000000      1.00000000      1.00000000      1.00000000      1.00000000      1.00000000      1.00000000      1.00000000      1.00000000      1.00000000      1.00000000      1.00000000      1.00000000      1.00000000      1.00000000      1.00000000
      1.00000000      1.00000000      1.00000000      1.00000000      1.00000000      1.00000000      1.00000000      1.00000000      1.00000000      1.00000000      1.00000000      1.00000000      1.00000000      1.00000000      1.00000000      1.00000000      1.00000000      1.00000000      1.00000000      1.00000000
      1.00000000      1.00000000      1.00000000      1.00000000      1.00000000      1.00000000      1.00000000      1.00000000      1.00000000      1.00000000      1.00000000      1.00000000      1.00000000      1.00000000      1.00000000      1.00000000      1.00000000      1.00000000      1.00000000      1.00000000
      1.00000000      1.00000000      1.00000000      1.00000000      1.00000000      1.00000000      1.00000000      1.00000000      1.00000000      1.00000000      1.00000000      1.00000000      1.00000000      1.00000000      1.00000000      1.00000000      1.00000000      1.00000000      1.00000000      1.00000000
      1.00000000      1.00000000      1.00000000      1.00000000      1.00000000      1.00000000      1.00000000      1.00000000      1.00000000      1.00000000      1.00000000      1.00000000      1.00000000      1.00000000      1.00000000      1.00000000      1.00000000      1.00000000      1.00000000      1.00000000
      1.00000000      1.00000000      1.00000000      1.00000000      1.00000000      1.00000000      1.00000000      1.00000000      1.00000000      1.00000000      1.00000000      1.00000000      1.00000000      1.00000000      1.00000000      1.00000000      1.00000000      1.00000000      1.00000000      1.00000000
      1.00000000      1.00000000      1.00000000      1.00000000      1.00000000      1.00000000      1.00000000      1.00000000      1.00000000      1.00000000      1.00000000      1.00000000      1.00000000      1.00000000      1.00000000      1.00000000      1.00000000      1.00000000      1.00000000      1.00000000
      1.00000000      1.00000000      1.00000000      1.00000000      1.00000000      1.00000000      1.00000000      1.00000000      1.00000000      1.00000000      1.00000000      1.00000000      1.00000000      1.00000000      1.00000000      1.00000000      1.00000000      1.00000000      1.00000000      1.00000000
      1.00000000      1.00000000      1.00000000      1.00000000      1.00000000      1.00000000      1.00000000      1.00000000      1.00000000      1.00000000      1.00000000      1.00000000      1.00000000</v>
    <i name="NUPDOWN">     -1.00000000</i>
    <i type="logical" name="LSORBIT"> F  </i>
    <v name="SAXIS">      0.00000000      0.00000000      1.00000000</v>
    <i type="logical" name="LSPIRAL"> F  </i>
    <v name="QSPIRAL">      0.00000000      0.00000000      0.00000000</v>
    <i type="logical" name="LZEROZ"> F  </i>
   </separator>
   <separator name="electronic exchange-correlation" >
    <i type="logical" name="LASPH"> F  </i>
    <i type="logical" name="LMETAGGA"> F  </i>
   </separator>
   <separator name="electronic convergence" >
    <i type="int" name="NELM">    60</i>
    <i type="int" name="NELMDL">    -5</i>
    <i type="int" name="NELMIN">     6</i>
    <i name="ENINI">    360.00000000</i>
    <separator name="electronic convergence detail" >
     <i type="logical" name="LDIAG"> T  </i>
     <i type="logical" name="LSUBROT"> F  </i>
     <i name="WEIMIN">      0.00100000</i>
     <i name="EBREAK">      0.00000000</i>
     <i name="DEPER">      0.30000000</i>
     <i type="int" name="NRMM">     4</i>
     <i name="TIME">      0.40000000</i>
    </separator>
   </separator>
   <separator name="electronic mixer" >
    <i name="AMIX">      0.40000000</i>
    <i name="BMIX">      1.00000000</i>
    <i name="AMIN">      0.10000000</i>
    <i name="AMIX_MAG">      1.60000000</i>
    <i name="BMIX_MAG">      1.00000000</i>
    <separator name="electronic mixer details" >
     <i type="int" name="IMIX">     4</i>
     <i type="logical" name="MIXFIRST"> F  </i>
     <i type="int" name="MAXMIX">   -45</i>
     <i name="WC">    100.00000000</i>
     <i type="int" name="INIMIX">     1</i>
     <i type="int" name="MIXPRE">     1</i>
     <i type="int" name="MREMOVE">     5</i>
    </separator>
   </separator>
   <separator name="electronic dipolcorrection" >
    <i type="logical" name="LDIPOL"> F  </i>
    <i type="logical" name="LMONO"> F  </i>
    <i type="int" name="IDIPOL">     0</i>
    <i name="EPSILON">      1.00000000</i>
    <v name="DIPOL">   -100.00000000   -100.00000000   -100.00000000</v>
    <i name="EFIELD">      0.00000000</i>
   </separator>
  </separator>
  <separator name="grids" >
   <i type="int" name="NGX">    80</i>
   <i type="int" name="NGY">    80</i>
   <i type="int" name="NGZ">   140</i>
   <i type="int" name="NGXF">   160</i>
   <i type="int" name="NGYF">   160</i>
   <i type="int" name="NGZF">   280</i>
   <i type="logical" name="ADDGRID"> F  </i>
  </separator>
  <separator name="ionic" >
   <i type="int" name="NSW">    40</i>
   <i type="int" name="IBRION">     2</i>
   <i type="int" name="MDALGO">     0</i>
   <i type="int" name="ISIF">     1</i>
   <i name="PSTRESS">      0.00000000</i>
   <i name="EDIFFG">      0.00005000</i>
   <i type="int" name="NFREE">     1</i>
   <i name="POTIM">      0.20000000</i>
   <i name="SMASS">     -3.00000000</i>
   <i name="SCALEE">      1.00000000</i>
  </separator>
  <separator name="ionic md" >
   <i name="TEBEG">      0.00010000</i>
   <i name="TEEND">      0.00010000</i>
   <i type="int" name="NBLOCK">     1</i>
   <i type="int" name="KBLOCK">    40</i>
   <i type="int" name="NPACO">   256</i>
   <i name="APACO">     16.00000000</i>
  </separator>
  <separator name="symmetry" >
   <i type="int" name="ISYM">     2</i>
   <i name="SYMPREC">      0.00001000</i>
  </separator>
  <separator name="dos" >
   <i type="int" name="LORBIT">     0</i>
   <v name="RWIGS">     -1.00000000     -1.00000000</v>
   <i type="int" name="NEDOS">   301</i>
   <i name="EMIN">     10.00000000</i>
   <i name="EMAX">    -10.00000000</i>
   <i name="EFERMI">      0.00000000</i>
  </separator>
  <separator name="writing" >
   <i type="int" name="NWRITE">     2</i>
   <i type="logical" name="LWAVE"> F  </i>
   <i type="logical" name="LDOWNSAMPLE"> F  </i>
   <i type="logical" name="LCHARG"> F  </i>
   <i type="logical" name="LPARD"> F  </i>
   <i type="logical" name="LVTOT"> F  </i>
   <i type="logical" name="LVHAR"> F  </i>
   <i type="logical" name="LELF"> F  </i>
   <i type="logical" name="LOPTICS"> F  </i>
   <v name="STM">      0.00000000      0.00000000      0.00000000      0.00000000      0.00000000      0.00000000      0.00000000</v>
  </separator>
  <separator name="performance" >
   <i type="int" name="NPAR">     1</i>
   <i type="int" name="NSIM">     4</i>
   <i type="int" name="NBLK">    -1</i>
   <i type="logical" name="LPLANE"> T  </i>
   <i type="logical" name="LSCALAPACK"> T  </i>
   <i type="logical" name="LSCAAWARE"> F  </i>
   <i type="logical" name="LSCALU"> F  </i>
   <i type="logical" name="LASYNC"> F  </i>
   <i type="logical" name="LORBITALREAL"> F  </i>
  </separator>
  <separator name="miscellaneous" >
   <i type="int" name="IDIOT">     3</i>
   <i type="int" name="PHON_NSTRUCT">    -1</i>
   <i type="logical" name="LMUSIC"> F  </i>
   <v name="POMASS">     26.98200000     16.00000000</v>
   <v name="DARWINR">      0.00000000      0.00000000</v>
   <v name="DARWINV">      1.00000000      1.00000000</v>
   <i type="logical" name="LCORR"> T  </i>
  </separator>
  <i type="logical" name="GGA_COMPAT"> T  </i>
  <i type="logical" name="LBERRY"> F  </i>
  <i type="int" name="ICORELEVEL">     0</i>
  <i type="logical" name="LDAU"> F  </i>
  <i type="int" name="I_CONSTRAINED_M">     0</i>
  <separator name="electronic exchange-correlation" >
   <i type="string" name="GGA">--</i>
   <i type="int" name="VOSKOWN">     0</i>
   <i type="logical" name="LHFCALC"> F  </i>
   <i type="string" name="PRECFOCK"></i>
   <i type="logical" name="LSYMGRAD"> F  </i>
   <i type="logical" name="LHFONE"> F  </i>
   <i type="logical" name="LRHFCALC"> F  </i>
   <i type="logical" name="LTHOMAS"> F  </i>
   <i type="logical" name="LMODELHF"> F  </i>
   <i type="logical" name="LFOCKACE"> F  </i>
   <i name="ENCUT4O">     -1.00000000</i>
   <i type="int" name="EXXOEP">     0</i>
   <i type="int" name="FOURORBIT">     0</i>
   <i name="AEXX">      0.00000000</i>
   <i name="HFALPHA">      0.00000000</i>
   <i name="MCALPHA">      0.00000000</i>
   <i name="ALDAX">      1.00000000</i>
   <i name="AGGAX">      1.00000000</i>
   <i name="ALDAC">      1.00000000</i>
   <i name="AGGAC">      1.00000000</i>
   <i type="int" name="NKREDX">     1</i>
   <i type="int" name="NKREDY">     1</i>
   <i type="int" name="NKREDZ">     1</i>
   <i type="logical" name="SHIFTRED"> F  </i>
   <i type="logical" name="ODDONLY"> F  </i>
   <i type="logical" name="EVENONLY"> F  </i>
   <i type="int" name="LMAXFOCK">     0</i>
   <i type="int" name="NMAXFOCKAE">     0</i>
   <i type="logical" name="LFOCKAEDFT"> F  </i>
   <i name="HFSCREEN">      0.00000000</i>
   <i name="HFSCREENC">      0.00000000</i>
   <i type="int" name="NBANDSGWLOW">     0</i>
  </separator>
  <separator name="vdW DFT" >
   <i type="logical" name="LUSE_VDW"> F  </i>
   <i name="Zab_VDW">     -0.84910000</i>
   <i name="PARAM1">      0.12340000</i>
   <i name="PARAM2">      1.00000000</i>
   <i name="PARAM3">      0.00000000</i>
  </separator>
  <separator name="model GW" >
   <i type="int" name="MODEL_GW">     0</i>
   <i name="MODEL_EPS0">     18.18686853</i>
   <i name="MODEL_ALPHA">      1.00000000</i>
  </separator>
  <separator name="linear response parameters" >
   <i type="logical" name="LEPSILON"> F  </i>
   <i type="logical" name="LRPA"> F  </i>
   <i type="logical" name="LNABLA"> F  </i>
   <i type="logical" name="LVEL"> F  </i>
   <i type="int" name="KINTER">     0</i>
   <i name="CSHIFT">      0.10000000</i>
   <i name="OMEGAMAX">     -1.00000000</i>
   <i name="DEG_THRESHOLD">      0.00200000</i>
   <i name="RTIME">     -0.10000000</i>
   <i name="WPLASMAI">      0.00000000</i>
   <v name="DFIELD">      0.00000000      0.00000000      0.00000000</v>
   <v name="WPLASMA">      0.00000000      0.00000000      0.00000000      0.00000000      0.00000000      0.00000000      0.00000000      0.00000000      0.00000000</v>
  </separator>
  <separator name="orbital magnetization" >
   <i type="logical" name="NUCIND"> F  </i>
   <v name="MAGPOS">      0.00000000      0.00000000      0.00000000</v>
   <i type="logical" name="LNICSALL"> T  </i>
   <i type="logical" name="ORBITALMAG"> F  </i>
   <i type="logical" name="LMAGBLOCH"> F  </i>
   <i type="logical" name="LCHIMAG"> F  </i>
   <i type="logical" name="LGAUGE"> T  </i>
   <i type="int" name="MAGATOM">     0</i>
   <v name="MAGDIPOL">      0.00000000      0.00000000      0.00000000</v>
   <v name="AVECCONST">      0.00000000      0.00000000      0.00000000</v>
  </separator>
  <separator name="response functions" >
   <i type="logical" name="LFINITE_TEMPERATURE"> F  </i>
   <i type="logical" name="LADDER"> F  </i>
   <i type="logical" name="LRPAFORCE"> F  </i>
   <i type="logical" name="LFXC"> F  </i>
   <i type="logical" name="LHARTREE"> T  </i>
   <i type="int" name="IBSE">     0</i>
   <v type="int" name="KPOINT">    -1     0     0     0</v>
   <i type="logical" name="LTCTC"> F  </i>
   <i type="logical" name="LTCTE"> F  </i>
   <i type="logical" name="LTETE"> F  </i>
   <i type="logical" name="LTRIPLET"> F  </i>
   <i type="logical" name="LFXCEPS"> F  </i>
   <i type="logical" name="LFXHEG"> F  </i>
   <i type="int" name="NATURALO">     2</i>
   <i type="logical" name="LHOLEGF"> F  </i>
   <i type="logical" name="L2ORDER"> F  </i>
   <i type="logical" name="LDMP1"> F  </i>
   <i type="logical" name="LMP2LT"> F  </i>
   <i type="logical" name="LSMP2LT"> F  </i>
   <i type="logical" name="LGWLF"> F  </i>
   <i name="ENCUTGW">     -2.00000000</i>
   <i name="ENCUTGWSOFT">     -2.00000000</i>
   <i name="ENCUTLF">     -1.00000000</i>
   <i type="logical" name="LESF_SPLINES"> F  </i>
   <i type="int" name="LMAXMP2">    -1</i>
   <i name="SCISSOR">      0.00000000</i>
   <i type="int" name="NOMEGA">     0</i>
   <i type="int" name="NOMEGAR">     0</i>
   <i type="int" name="NBANDSGW">    -1</i>
   <i type="int" name="NBANDSO">    -1</i>
   <i type="int" name="NBANDSV">    -1</i>
   <i type="int" name="NELM">     1</i>
   <i type="int" name="NELMHF">     1</i>
   <i type="int" name="DIM">     3</i>
   <i type="int" name="IESPILON">     4</i>
   <i type="int" name="ANTIRES">     0</i>
   <i name="OMEGAMAX">    -30.00000000</i>
   <i name="OMEGAMIN">    -30.00000000</i>
   <i name="OMEGATL">   -200.00000000</i>
   <i type="int" name="OMEGAGRID">     0</i>
   <i name="CSHIFT">     -0.10000000</i>
   <i type="logical" name="LSELFENERGY"> F  </i>
   <i type="logical" name="LSPECTRAL"> F  </i>
   <i type="logical" name="LSPECTRALGW"> F  </i>
   <i type="logical" name="LSINGLES"> F  </i>
   <i type="logical" name="LFERMIGW"> F  </i>
   <i type="logical" name="ODDONLYGW"> F  </i>
   <i type="logical" name="EVENONLYGW"> F  </i>
   <i type="int" name="NKREDLFX">     1</i>
   <i type="int" name="NKREDLFY">     1</i>
   <i type="int" name="NKREDLFZ">     1</i>
   <i type="int" name="MAXMEM">  2800</i>
   <i type="int" name="TELESCOPE">     0</i>
   <i type="int" name="NTAUPAR">    -1</i>
   <i type="int" name="NOMEGAPAR">    -1</i>
   <i name="DAMP_NEWTON">      0.80000001</i>
   <i name="LAMBDA">      1.00000000</i>
  </separator>
  <separator name="External order field" >
   <i name="OFIELD_KAPPA">      0.00000000</i>
   <v name="OFIELD_K">      0.00000000      0.00000000      0.00000000</v>
   <i name="OFIELD_Q6_NEAR">      0.00000000</i>
   <i name="OFIELD_Q6_FAR">      0.00000000</i>
   <i name="OFIELD_A">      0.00000000</i>
  </separator>
  <separator name="solvation model" >
   <i type="logical" name="LSOL"> F  </i>
  </separator>
 </parameters>
 <atominfo>
  <atoms>     253 </atoms>
  <types>       2 </types>
  <array name="atoms" >
   <dimension dim="1">ion</dimension>
   <field type="string">element</field>
   <field type="int">atomtype</field>
   <set>
    <rc><c>Al</c><c>   1</c></rc>
    <rc><c>Al</c><c>   1</c></rc>
    <rc><c>Al</c><c>   1</c></rc>
    <rc><c>Al</c><c>   1</c></rc>
    <rc><c>Al</c><c>   1</c></rc>
    <rc><c>Al</c><c>   1</c></rc>
    <rc><c>Al</c><c>   1</c></rc>
    <rc><c>Al</c><c>   1</c></rc>
    <rc><c>Al</c><c>   1</c></rc>
    <rc><c>Al</c><c>   1</c></rc>
    <rc><c>Al</c><c>   1</c></rc>
    <rc><c>Al</c><c>   1</c></rc>
    <rc><c>Al</c><c>   1</c></rc>
    <rc><c>Al</c><c>   1</c></rc>
    <rc><c>Al</c><c>   1</c></rc>
    <rc><c>Al</c><c>   1</c></rc>
    <rc><c>Al</c><c>   1</c></rc>
    <rc><c>Al</c><c>   1</c></rc>
    <rc><c>Al</c><c>   1</c></rc>
    <rc><c>Al</c><c>   1</c></rc>
    <rc><c>Al</c><c>   1</c></rc>
    <rc><c>Al</c><c>   1</c></rc>
    <rc><c>Al</c><c>   1</c></rc>
    <rc><c>Al</c><c>   1</c></rc>
    <rc><c>Al</c><c>   1</c></rc>
    <rc><c>Al</c><c>   1</c></rc>
    <rc><c>Al</c><c>   1</c></rc>
    <rc><c>Al</c><c>   1</c></rc>
    <rc><c>Al</c><c>   1</c></rc>
    <rc><c>Al</c><c>   1</c></rc>
    <rc><c>Al</c><c>   1</c></rc>
    <rc><c>Al</c><c>   1</c></rc>
    <rc><c>Al</c><c>   1</c></rc>
    <rc><c>Al</c><c>   1</c></rc>
    <rc><c>Al</c><c>   1</c></rc>
    <rc><c>Al</c><c>   1</c></rc>
    <rc><c>Al</c><c>   1</c></rc>
    <rc><c>Al</c><c>   1</c></rc>
    <rc><c>Al</c><c>   1</c></rc>
    <rc><c>Al</c><c>   1</c></rc>
    <rc><c>Al</c><c>   1</c></rc>
    <rc><c>Al</c><c>   1</c></rc>
    <rc><c>Al</c><c>   1</c></rc>
    <rc><c>Al</c><c>   1</c></rc>
    <rc><c>Al</c><c>   1</c></rc>
    <rc><c>Al</c><c>   1</c></rc>
    <rc><c>Al</c><c>   1</c></rc>
    <rc><c>Al</c><c>   1</c></rc>
    <rc><c>Al</c><c>   1</c></rc>
    <rc><c>Al</c><c>   1</c></rc>
    <rc><c>Al</c><c>   1</c></rc>
    <rc><c>Al</c><c>   1</c></rc>
    <rc><c>Al</c><c>   1</c></rc>
    <rc><c>Al</c><c>   1</c></rc>
    <rc><c>Al</c><c>   1</c></rc>
    <rc><c>Al</c><c>   1</c></rc>
    <rc><c>Al</c><c>   1</c></rc>
    <rc><c>Al</c><c>   1</c></rc>
    <rc><c>Al</c><c>   1</c></rc>
    <rc><c>Al</c><c>   1</c></rc>
    <rc><c>Al</c><c>   1</c></rc>
    <rc><c>Al</c><c>   1</c></rc>
    <rc><c>Al</c><c>   1</c></rc>
    <rc><c>Al</c><c>   1</c></rc>
    <rc><c>Al</c><c>   1</c></rc>
    <rc><c>Al</c><c>   1</c></rc>
    <rc><c>Al</c><c>   1</c></rc>
    <rc><c>Al</c><c>   1</c></rc>
    <rc><c>Al</c><c>   1</c></rc>
    <rc><c>Al</c><c>   1</c></rc>
    <rc><c>Al</c><c>   1</c></rc>
    <rc><c>Al</c><c>   1</c></rc>
    <rc><c>Al</c><c>   1</c></rc>
    <rc><c>Al</c><c>   1</c></rc>
    <rc><c>Al</c><c>   1</c></rc>
    <rc><c>Al</c><c>   1</c></rc>
    <rc><c>Al</c><c>   1</c></rc>
    <rc><c>Al</c><c>   1</c></rc>
    <rc><c>Al</c><c>   1</c></rc>
    <rc><c>Al</c><c>   1</c></rc>
    <rc><c>Al</c><c>   1</c></rc>
    <rc><c>Al</c><c>   1</c></rc>
    <rc><c>Al</c><c>   1</c></rc>
    <rc><c>Al</c><c>   1</c></rc>
    <rc><c>Al</c><c>   1</c></rc>
    <rc><c>Al</c><c>   1</c></rc>
    <rc><c>Al</c><c>   1</c></rc>
    <rc><c>Al</c><c>   1</c></rc>
    <rc><c>Al</c><c>   1</c></rc>
    <rc><c>Al</c><c>   1</c></rc>
    <rc><c>Al</c><c>   1</c></rc>
    <rc><c>Al</c><c>   1</c></rc>
    <rc><c>Al</c><c>   1</c></rc>
    <rc><c>Al</c><c>   1</c></rc>
    <rc><c>Al</c><c>   1</c></rc>
    <rc><c>Al</c><c>   1</c></rc>
    <rc><c>Al</c><c>   1</c></rc>
    <rc><c>Al</c><c>   1</c></rc>
    <rc><c>Al</c><c>   1</c></rc>
    <rc><c>Al</c><c>   1</c></rc>
    <rc><c>Al</c><c>   1</c></rc>
    <rc><c>Al</c><c>   1</c></rc>
    <rc><c>Al</c><c>   1</c></rc>
    <rc><c>Al</c><c>   1</c></rc>
    <rc><c>Al</c><c>   1</c></rc>
    <rc><c>Al</c><c>   1</c></rc>
    <rc><c>Al</c><c>   1</c></rc>
    <rc><c>Al</c><c>   1</c></rc>
    <rc><c>Al</c><c>   1</c></rc>
    <rc><c>Al</c><c>   1</c></rc>
    <rc><c>Al</c><c>   1</c></rc>
    <rc><c>Al</c><c>   1</c></rc>
    <rc><c>Al</c><c>   1</c></rc>
    <rc><c>Al</c><c>   1</c></rc>
    <rc><c>Al</c><c>   1</c></rc>
    <rc><c>Al</c><c>   1</c></rc>
    <rc><c>Al</c><c>   1</c></rc>
    <rc><c>Al</c><c>   1</c></rc>
    <rc><c>Al</c><c>   1</c></rc>
    <rc><c>Al</c><c>   1</c></rc>
    <rc><c>Al</c><c>   1</c></rc>
    <rc><c>Al</c><c>   1</c></rc>
    <rc><c>Al</c><c>   1</c></rc>
    <rc><c>Al</c><c>   1</c></rc>
    <rc><c>Al</c><c>   1</c></rc>
    <rc><c>Al</c><c>   1</c></rc>
    <rc><c>Al</c><c>   1</c></rc>
    <rc><c>Al</c><c>   1</c></rc>
    <rc><c>Al</c><c>   1</c></rc>
    <rc><c>Al</c><c>   1</c></rc>
    <rc><c>Al</c><c>   1</c></rc>
    <rc><c>Al</c><c>   1</c></rc>
    <rc><c>Al</c><c>   1</c></rc>
    <rc><c>Al</c><c>   1</c></rc>
    <rc><c>Al</c><c>   1</c></rc>
    <rc><c>Al</c><c>   1</c></rc>
    <rc><c>Al</c><c>   1</c></rc>
    <rc><c>Al</c><c>   1</c></rc>
    <rc><c>Al</c><c>   1</c></rc>
    <rc><c>Al</c><c>   1</c></rc>
    <rc><c>Al</c><c>   1</c></rc>
    <rc><c>Al</c><c>   1</c></rc>
    <rc><c>Al</c><c>   1</c></rc>
    <rc><c>Al</c><c>   1</c></rc>
    <rc><c>Al</c><c>   1</c></rc>
    <rc><c>Al</c><c>   1</c></rc>
    <rc><c>Al</c><c>   1</c></rc>
    <rc><c>Al</c><c>   1</c></rc>
    <rc><c>Al</c><c>   1</c></rc>
    <rc><c>Al</c><c>   1</c></rc>
    <rc><c>Al</c><c>   1</c></rc>
    <rc><c>Al</c><c>   1</c></rc>
    <rc><c>Al</c><c>   1</c></rc>
    <rc><c>Al</c><c>   1</c></rc>
    <rc><c>Al</c><c>   1</c></rc>
    <rc><c>Al</c><c>   1</c></rc>
    <rc><c>Al</c><c>   1</c></rc>
    <rc><c>Al</c><c>   1</c></rc>
    <rc><c>Al</c><c>   1</c></rc>
    <rc><c>Al</c><c>   1</c></rc>
    <rc><c>Al</c><c>   1</c></rc>
    <rc><c>Al</c><c>   1</c></rc>
    <rc><c>Al</c><c>   1</c></rc>
    <rc><c>Al</c><c>   1</c></rc>
    <rc><c>Al</c><c>   1</c></rc>
    <rc><c>Al</c><c>   1</c></rc>
    <rc><c>Al</c><c>   1</c></rc>
    <rc><c>Al</c><c>   1</c></rc>
    <rc><c>Al</c><c>   1</c></rc>
    <rc><c>Al</c><c>   1</c></rc>
    <rc><c>Al</c><c>   1</c></rc>
    <rc><c>Al</c><c>   1</c></rc>
    <rc><c>Al</c><c>   1</c></rc>
    <rc><c>Al</c><c>   1</c></rc>
    <rc><c>Al</c><c>   1</c></rc>
    <rc><c>Al</c><c>   1</c></rc>
    <rc><c>Al</c><c>   1</c></rc>
    <rc><c>Al</c><c>   1</c></rc>
    <rc><c>Al</c><c>   1</c></rc>
    <rc><c>Al</c><c>   1</c></rc>
    <rc><c>Al</c><c>   1</c></rc>
    <rc><c>Al</c><c>   1</c></rc>
    <rc><c>Al</c><c>   1</c></rc>
    <rc><c>Al</c><c>   1</c></rc>
    <rc><c>Al</c><c>   1</c></rc>
    <rc><c>Al</c><c>   1</c></rc>
    <rc><c>Al</c><c>   1</c></rc>
    <rc><c>Al</c><c>   1</c></rc>
    <rc><c>Al</c><c>   1</c></rc>
    <rc><c>Al</c><c>   1</c></rc>
    <rc><c>Al</c><c>   1</c></rc>
    <rc><c>Al</c><c>   1</c></rc>
    <rc><c>Al</c><c>   1</c></rc>
    <rc><c>Al</c><c>   1</c></rc>
    <rc><c>Al</c><c>   1</c></rc>
    <rc><c>Al</c><c>   1</c></rc>
    <rc><c>Al</c><c>   1</c></rc>
    <rc><c>Al</c><c>   1</c></rc>
    <rc><c>Al</c><c>   1</c></rc>
    <rc><c>Al</c><c>   1</c></rc>
    <rc><c>Al</c><c>   1</c></rc>
    <rc><c>Al</c><c>   1</c></rc>
    <rc><c>Al</c><c>   1</c></rc>
    <rc><c>Al</c><c>   1</c></rc>
    <rc><c>Al</c><c>   1</c></rc>
    <rc><c>Al</c><c>   1</c></rc>
    <rc><c>Al</c><c>   1</c></rc>
    <rc><c>Al</c><c>   1</c></rc>
    <rc><c>Al</c><c>   1</c></rc>
    <rc><c>Al</c><c>   1</c></rc>
    <rc><c>Al</c><c>   1</c></rc>
    <rc><c>Al</c><c>   1</c></rc>
    <rc><c>Al</c><c>   1</c></rc>
    <rc><c>Al</c><c>   1</c></rc>
    <rc><c>Al</c><c>   1</c></rc>
    <rc><c>Al</c><c>   1</c></rc>
    <rc><c>Al</c><c>   1</c></rc>
    <rc><c>Al</c><c>   1</c></rc>
    <rc><c>Al</c><c>   1</c></rc>
    <rc><c>Al</c><c>   1</c></rc>
    <rc><c>Al</c><c>   1</c></rc>
    <rc><c>Al</c><c>   1</c></rc>
    <rc><c>Al</c><c>   1</c></rc>
    <rc><c>Al</c><c>   1</c></rc>
    <rc><c>Al</c><c>   1</c></rc>
    <rc><c>Al</c><c>   1</c></rc>
    <rc><c>Al</c><c>   1</c></rc>
    <rc><c>Al</c><c>   1</c></rc>
    <rc><c>Al</c><c>   1</c></rc>
    <rc><c>Al</c><c>   1</c></rc>
    <rc><c>Al</c><c>   1</c></rc>
    <rc><c>Al</c><c>   1</c></rc>
    <rc><c>Al</c><c>   1</c></rc>
    <rc><c>Al</c><c>   1</c></rc>
    <rc><c>Al</c><c>   1</c></rc>
    <rc><c>Al</c><c>   1</c></rc>
    <rc><c>Al</c><c>   1</c></rc>
    <rc><c>Al</c><c>   1</c></rc>
    <rc><c>Al</c><c>   1</c></rc>
    <rc><c>Al</c><c>   1</c></rc>
    <rc><c>Al</c><c>   1</c></rc>
    <rc><c>Al</c><c>   1</c></rc>
    <rc><c>Al</c><c>   1</c></rc>
    <rc><c>Al</c><c>   1</c></rc>
    <rc><c>Al</c><c>   1</c></rc>
    <rc><c>Al</c><c>   1</c></rc>
    <rc><c>Al</c><c>   1</c></rc>
    <rc><c>Al</c><c>   1</c></rc>
    <rc><c>Al</c><c>   1</c></rc>
    <rc><c>Al</c><c>   1</c></rc>
    <rc><c>Al</c><c>   1</c></rc>
    <rc><c>Al</c><c>   1</c></rc>
    <rc><c>O </c><c>   2</c></rc>
   </set>
  </array>
  <array name="atomtypes" >
   <dimension dim="1">type</dimension>
   <field type="int">atomspertype</field>
   <field type="string">element</field>
   <field>mass</field>
   <field>valence</field>
   <field type="string">pseudopotential</field>
   <set>
    <rc><c> 252</c><c>Al</c><c>     26.98200000</c><c>      3.00000000</c><c>  PAW Al_GW 19Mar2012                   </c></rc>
    <rc><c>   1</c><c>O </c><c>     16.00000000</c><c>      6.00000000</c><c>  PAW O_GW 19Mar2012                    </c></rc>
   </set>
  </array>
 </atominfo>
 <structure name="initialpos" >
  <crystal>
   <varray name="basis" >
    <v>       0.00000000     -17.18057346       0.00000000 </v>
    <v>       0.00000000      -8.59028673     -14.87881307 </v>
    <v>      30.00000000       0.00000000       0.00000000 </v>
   </varray>
   <i name="volume">   7668.79622957 </i>
   <varray name="rec_basis" >
    <v>       0.00000000      -0.05820527       0.03360483 </v>
    <v>       0.00000000       0.00000000      -0.06720966 </v>
    <v>       0.03333333       0.00000000       0.00000000 </v>
   </varray>
  </crystal>
  <varray name="positions" >
   <v>       0.44444444       0.44444444       0.07873473 </v>
   <v>       0.44444444       0.77777778       0.07873473 </v>
   <v>       0.44444444       0.11111111       0.07873473 </v>
   <v>       0.77777778       0.44444444       0.07873473 </v>
   <v>       0.77777778       0.77777778       0.07873473 </v>
   <v>       0.77777778       0.11111111       0.07873473 </v>
   <v>       0.11111111       0.44444444       0.07873473 </v>
   <v>       0.11111111       0.77777778       0.07873473 </v>
   <v>       0.11111111       0.11111111       0.07873473 </v>
   <v>       0.55555556       0.55555556       0.15702584 </v>
   <v>       0.55555556       0.88888889       0.15702584 </v>
   <v>       0.55555556       0.22222222       0.15702584 </v>
   <v>       0.88888889       0.55555556       0.15702584 </v>
   <v>       0.88888889       0.88888889       0.15702584 </v>
   <v>       0.88888889       0.22222222       0.15702584 </v>
   <v>       0.22222222       0.55555556       0.15702584 </v>
   <v>       0.22222222       0.88888889       0.15702584 </v>
   <v>       0.22222222       0.22222222       0.15702584 </v>
   <v>       0.66666667       0.66666667       0.23375740 </v>
   <v>       0.66666667       0.00000000       0.23375740 </v>
   <v>       0.66666667       0.33333333       0.23375740 </v>
   <v>       0.00000000       0.66666667       0.23375740 </v>
   <v>       0.00000000       0.00000000       0.23375740 </v>
   <v>       0.00000000       0.33333333       0.23375740 </v>
   <v>       0.33333333       0.66666667       0.23375740 </v>
   <v>       0.33333333       0.00000000       0.23375740 </v>
   <v>       0.33333333       0.33333333       0.23375740 </v>
   <v>       0.77777778       0.77777778       0.31173066 </v>
   <v>       0.77777778       0.11111111       0.31173066 </v>
   <v>       0.77777778       0.44444444       0.31173066 </v>
   <v>       0.11111111       0.77777778       0.31173066 </v>
   <v>       0.11111111       0.11111111       0.31173066 </v>
   <v>       0.11111111       0.44444444       0.31173066 </v>
   <v>       0.44444444       0.77777778       0.31173066 </v>
   <v>       0.44444444       0.11111111       0.31173066 </v>
   <v>       0.44444444       0.44444444       0.31173066 </v>
   <v>       0.88888889       0.88888889       0.38970391 </v>
   <v>       0.88888889       0.22222222       0.38970391 </v>
   <v>       0.88888889       0.55555556       0.38970391 </v>
   <v>       0.22222222       0.88888889       0.38970391 </v>
   <v>       0.22222222       0.22222222       0.38970391 </v>
   <v>       0.22222222       0.55555556       0.38970391 </v>
   <v>       0.55555556       0.88888889       0.38970391 </v>
   <v>       0.55555556       0.22222222       0.38970391 </v>
   <v>       0.55555556       0.55555556       0.38970391 </v>
   <v>       0.00000000       0.00000000       0.46643547 </v>
   <v>       0.00000000       0.33333333       0.46643547 </v>
   <v>       0.00000000       0.66666667       0.46643547 </v>
   <v>       0.33333333       0.00000000       0.46643547 </v>
   <v>       0.33333333       0.33333333       0.46643547 </v>
   <v>       0.33333333       0.66666667       0.46643547 </v>
   <v>       0.66666667       0.00000000       0.46643547 </v>
   <v>       0.66666667       0.33333333       0.46643547 </v>
   <v>       0.66666667       0.66666667       0.46643547 </v>
   <v>       0.11111111       0.11111111       0.54472658 </v>
   <v>       0.11111111       0.44444444       0.54472658 </v>
   <v>       0.11111111       0.77777778       0.54472658 </v>
   <v>       0.44444444       0.11111111       0.54472658 </v>
   <v>       0.44444444       0.44444444       0.54472658 </v>
   <v>       0.44444444       0.77777778       0.54472658 </v>
   <v>       0.77777778       0.11111111       0.54472658 </v>
   <v>       0.77777778       0.44444444       0.54472658 </v>
   <v>       0.77777778       0.77777778       0.54472658 </v>
   <v>       0.27777778       0.27777778       0.07873473 </v>
   <v>       0.27777778       0.61111111       0.07873473 </v>
   <v>       0.27777778       0.94444444       0.07873473 </v>
   <v>       0.61111111       0.27777778       0.07873473 </v>
   <v>       0.61111111       0.61111111       0.07873473 </v>
   <v>       0.61111111       0.94444444       0.07873473 </v>
   <v>       0.94444444       0.27777778       0.07873473 </v>
   <v>       0.94444444       0.61111111       0.07873473 </v>
   <v>       0.94444444       0.94444444       0.07873473 </v>
   <v>       0.38888889       0.38888889       0.15702584 </v>
   <v>       0.38888889       0.72222222       0.15702584 </v>
   <v>       0.38888889       0.05555556       0.15702584 </v>
   <v>       0.72222222       0.38888889       0.15702584 </v>
   <v>       0.72222222       0.72222222       0.15702584 </v>
   <v>       0.72222222       0.05555556       0.15702584 </v>
   <v>       0.05555556       0.38888889       0.15702584 </v>
   <v>       0.05555556       0.72222222       0.15702584 </v>
   <v>       0.05555556       0.05555556       0.15702584 </v>
   <v>       0.50000000       0.50000000       0.23375740 </v>
   <v>       0.50000000       0.83333333       0.23375740 </v>
   <v>       0.50000000       0.16666667       0.23375740 </v>
   <v>       0.83333333       0.50000000       0.23375740 </v>
   <v>       0.83333333       0.83333333       0.23375740 </v>
   <v>       0.83333333       0.16666667       0.23375740 </v>
   <v>       0.16666667       0.50000000       0.23375740 </v>
   <v>       0.16666667       0.83333333       0.23375740 </v>
   <v>       0.16666667       0.16666667       0.23375740 </v>
   <v>       0.61111111       0.61111111       0.31173066 </v>
   <v>       0.61111111       0.94444444       0.31173066 </v>
   <v>       0.61111111       0.27777778       0.31173066 </v>
   <v>       0.94444444       0.61111111       0.31173066 </v>
   <v>       0.94444444       0.94444444       0.31173066 </v>
   <v>       0.94444444       0.27777778       0.31173066 </v>
   <v>       0.27777778       0.61111111       0.31173066 </v>
   <v>       0.27777778       0.94444444       0.31173066 </v>
   <v>       0.27777778       0.27777778       0.31173066 </v>
   <v>       0.72222222       0.72222222       0.38970391 </v>
   <v>       0.72222222       0.05555556       0.38970391 </v>
   <v>       0.72222222       0.38888889       0.38970391 </v>
   <v>       0.05555556       0.72222222       0.38970391 </v>
   <v>       0.05555556       0.05555556       0.38970391 </v>
   <v>       0.05555556       0.38888889       0.38970391 </v>
   <v>       0.38888889       0.72222222       0.38970391 </v>
   <v>       0.38888889       0.05555556       0.38970391 </v>
   <v>       0.38888889       0.38888889       0.38970391 </v>
   <v>       0.83333333       0.83333333       0.46643547 </v>
   <v>       0.83333333       0.16666667       0.46643547 </v>
   <v>       0.83333333       0.50000000       0.46643547 </v>
   <v>       0.16666667       0.83333333       0.46643547 </v>
   <v>       0.16666667       0.16666667       0.46643547 </v>
   <v>       0.16666667       0.50000000       0.46643547 </v>
   <v>       0.50000000       0.83333333       0.46643547 </v>
   <v>       0.50000000       0.16666667       0.46643547 </v>
   <v>       0.50000000       0.50000000       0.46643547 </v>
   <v>       0.94444444       0.94444444       0.54472658 </v>
   <v>       0.94444444       0.27777778       0.54472658 </v>
   <v>       0.94444444       0.61111111       0.54472658 </v>
   <v>       0.27777778       0.94444444       0.54472658 </v>
   <v>       0.27777778       0.27777778       0.54472658 </v>
   <v>       0.27777778       0.61111111       0.54472658 </v>
   <v>       0.61111111       0.94444444       0.54472658 </v>
   <v>       0.61111111       0.27777778       0.54472658 </v>
   <v>       0.61111111       0.61111111       0.54472658 </v>
   <v>       0.27777778       0.44444444       0.07873473 </v>
   <v>       0.27777778       0.77777778       0.07873473 </v>
   <v>       0.27777778       0.11111111       0.07873473 </v>
   <v>       0.61111111       0.44444444       0.07873473 </v>
   <v>       0.61111111       0.77777778       0.07873473 </v>
   <v>       0.61111111       0.11111111       0.07873473 </v>
   <v>       0.94444444       0.44444444       0.07873473 </v>
   <v>       0.94444444       0.77777778       0.07873473 </v>
   <v>       0.94444444       0.11111111       0.07873473 </v>
   <v>       0.38888889       0.55555556       0.15702584 </v>
   <v>       0.38888889       0.88888889       0.15702584 </v>
   <v>       0.38888889       0.22222222       0.15702584 </v>
   <v>       0.72222222       0.55555556       0.15702584 </v>
   <v>       0.72222222       0.88888889       0.15702584 </v>
   <v>       0.72222222       0.22222222       0.15702584 </v>
   <v>       0.05555556       0.55555556       0.15702584 </v>
   <v>       0.05555556       0.88888889       0.15702584 </v>
   <v>       0.05555556       0.22222222       0.15702584 </v>
   <v>       0.50000000       0.66666667       0.23375740 </v>
   <v>       0.50000000       0.00000000       0.23375740 </v>
   <v>       0.50000000       0.33333333       0.23375740 </v>
   <v>       0.83333333       0.66666667       0.23375740 </v>
   <v>       0.83333333       0.00000000       0.23375740 </v>
   <v>       0.83333333       0.33333333       0.23375740 </v>
   <v>       0.16666667       0.66666667       0.23375740 </v>
   <v>       0.16666667       0.00000000       0.23375740 </v>
   <v>       0.16666667       0.33333333       0.23375740 </v>
   <v>       0.61111111       0.77777778       0.31173066 </v>
   <v>       0.61111111       0.11111111       0.31173066 </v>
   <v>       0.61111111       0.44444444       0.31173066 </v>
   <v>       0.94444444       0.77777778       0.31173066 </v>
   <v>       0.94444444       0.11111111       0.31173066 </v>
   <v>       0.94444444       0.44444444       0.31173066 </v>
   <v>       0.27777778       0.77777778       0.31173066 </v>
   <v>       0.27777778       0.11111111       0.31173066 </v>
   <v>       0.27777778       0.44444444       0.31173066 </v>
   <v>       0.72222222       0.88888889       0.38970391 </v>
   <v>       0.72222222       0.22222222       0.38970391 </v>
   <v>       0.72222222       0.55555556       0.38970391 </v>
   <v>       0.05555556       0.88888889       0.38970391 </v>
   <v>       0.05555556       0.22222222       0.38970391 </v>
   <v>       0.05555556       0.55555556       0.38970391 </v>
   <v>       0.38888889       0.88888889       0.38970391 </v>
   <v>       0.38888889       0.22222222       0.38970391 </v>
   <v>       0.38888889       0.55555556       0.38970391 </v>
   <v>       0.83333333       0.00000000       0.46643547 </v>
   <v>       0.83333333       0.33333333       0.46643547 </v>
   <v>       0.83333333       0.66666667       0.46643547 </v>
   <v>       0.16666667       0.00000000       0.46643547 </v>
   <v>       0.16666667       0.33333333       0.46643547 </v>
   <v>       0.16666667       0.66666667       0.46643547 </v>
   <v>       0.50000000       0.00000000       0.46643547 </v>
   <v>       0.50000000       0.33333333       0.46643547 </v>
   <v>       0.50000000       0.66666667       0.46643547 </v>
   <v>       0.94444444       0.11111111       0.54472658 </v>
   <v>       0.94444444       0.44444444       0.54472658 </v>
   <v>       0.94444444       0.77777778       0.54472658 </v>
   <v>       0.27777778       0.11111111       0.54472658 </v>
   <v>       0.27777778       0.44444444       0.54472658 </v>
   <v>       0.27777778       0.77777778       0.54472658 </v>
   <v>       0.61111111       0.11111111       0.54472658 </v>
   <v>       0.61111111       0.44444444       0.54472658 </v>
   <v>       0.61111111       0.77777778       0.54472658 </v>
   <v>       0.44444444       0.27777778       0.07873473 </v>
   <v>       0.44444444       0.61111111       0.07873473 </v>
   <v>       0.44444444       0.94444444       0.07873473 </v>
   <v>       0.77777778       0.27777778       0.07873473 </v>
   <v>       0.77777778       0.61111111       0.07873473 </v>
   <v>       0.77777778       0.94444444       0.07873473 </v>
   <v>       0.11111111       0.27777778       0.07873473 </v>
   <v>       0.11111111       0.61111111       0.07873473 </v>
   <v>       0.11111111       0.94444444       0.07873473 </v>
   <v>       0.55555556       0.38888889       0.15702584 </v>
   <v>       0.55555556       0.72222222       0.15702584 </v>
   <v>       0.55555556       0.05555556       0.15702584 </v>
   <v>       0.88888889       0.38888889       0.15702584 </v>
   <v>       0.88888889       0.72222222       0.15702584 </v>
   <v>       0.88888889       0.05555556       0.15702584 </v>
   <v>       0.22222222       0.38888889       0.15702584 </v>
   <v>       0.22222222       0.72222222       0.15702584 </v>
   <v>       0.22222222       0.05555556       0.15702584 </v>
   <v>       0.66666667       0.50000000       0.23375740 </v>
   <v>       0.66666667       0.83333333       0.23375740 </v>
   <v>       0.66666667       0.16666667       0.23375740 </v>
   <v>       0.00000000       0.50000000       0.23375740 </v>
   <v>       0.00000000       0.83333333       0.23375740 </v>
   <v>       0.00000000       0.16666667       0.23375740 </v>
   <v>       0.33333333       0.50000000       0.23375740 </v>
   <v>       0.33333333       0.83333333       0.23375740 </v>
   <v>       0.33333333       0.16666667       0.23375740 </v>
   <v>       0.77777778       0.61111111       0.31173066 </v>
   <v>       0.77777778       0.94444444       0.31173066 </v>
   <v>       0.77777778       0.27777778       0.31173066 </v>
   <v>       0.11111111       0.61111111       0.31173066 </v>
   <v>       0.11111111       0.94444444       0.31173066 </v>
   <v>       0.11111111       0.27777778       0.31173066 </v>
   <v>       0.44444444       0.61111111       0.31173066 </v>
   <v>       0.44444444       0.94444444       0.31173066 </v>
   <v>       0.44444444       0.27777778       0.31173066 </v>
   <v>       0.88888889       0.72222222       0.38970391 </v>
   <v>       0.88888889       0.05555556       0.38970391 </v>
   <v>       0.88888889       0.38888889       0.38970391 </v>
   <v>       0.22222222       0.72222222       0.38970391 </v>
   <v>       0.22222222       0.05555556       0.38970391 </v>
   <v>       0.22222222       0.38888889       0.38970391 </v>
   <v>       0.55555556       0.72222222       0.38970391 </v>
   <v>       0.55555556       0.05555556       0.38970391 </v>
   <v>       0.55555556       0.38888889       0.38970391 </v>
   <v>       0.00000000       0.83333333       0.46643547 </v>
   <v>       0.00000000       0.16666667       0.46643547 </v>
   <v>       0.00000000       0.50000000       0.46643547 </v>
   <v>       0.33333333       0.83333333       0.46643547 </v>
   <v>       0.33333333       0.16666667       0.46643547 </v>
   <v>       0.33333333       0.50000000       0.46643547 </v>
   <v>       0.66666667       0.83333333       0.46643547 </v>
   <v>       0.66666667       0.16666667       0.46643547 </v>
   <v>       0.66666667       0.50000000       0.46643547 </v>
   <v>       0.11111111       0.94444444       0.54472658 </v>
   <v>       0.11111111       0.27777778       0.54472658 </v>
   <v>       0.11111111       0.61111111       0.54472658 </v>
   <v>       0.44444444       0.94444444       0.54472658 </v>
   <v>       0.44444444       0.27777778       0.54472658 </v>
   <v>       0.44444444       0.61111111       0.54472658 </v>
   <v>       0.77777778       0.94444444       0.54472658 </v>
   <v>       0.77777778       0.27777778       0.54472658 </v>
   <v>       0.77777778       0.61111111       0.54472658 </v>
   <v>       0.38888889       0.55555556       0.59000000 </v>
  </varray>
 </structure>
 <calculation>
  <scstep>
   <time name="dav">    4.45    4.45</time>
   <time name="total">    4.91    4.93</time>
   <energy>
    <i name="alphaZ">    499.44056572 </i>
    <i name="ewald">  89069.52182393 </i>
    <i name="hartreedc">-103033.50342854 </i>
    <i name="XCdc">  -6618.07364582 </i>
    <i name="pawpsdc">  17031.59111732 </i>
    <i name="pawaedc">  -8978.24457680 </i>
    <i name="eentropy">     -0.05945845 </i>
    <i name="bandstr">    447.64862226 </i>
    <i name="atom">  13923.58983807 </i>
    <i name="e_fr_energy">   2341.91085769 </i>
    <i name="e_wo_entrp">   2341.97031614 </i>
    <i name="e_0_energy">   2341.94058692 </i>
   </energy>
  </scstep>
  <scstep>
   <time name="dav">    5.64    5.64</time>
   <time name="total">    5.64    5.64</time>
   <energy>
    <i name="e_fr_energy">   -710.41863156 </i>
    <i name="e_wo_entrp">   -710.30414266 </i>
    <i name="e_0_energy">   -710.36138711 </i>
   </energy>
  </scstep>
  <scstep>
   <time name="dav">    6.09    6.09</time>
   <time name="total">    6.09    6.09</time>
   <energy>
    <i name="e_fr_energy">   -944.72052669 </i>
    <i name="e_wo_entrp">   -944.50564162 </i>
    <i name="e_0_energy">   -944.61308415 </i>
   </energy>
  </scstep>
  <scstep>
   <time name="dav">    6.05    6.05</time>
   <time name="total">    6.06    6.06</time>
   <energy>
    <i name="e_fr_energy">   -955.46876383 </i>
    <i name="e_wo_entrp">   -955.23255156 </i>
    <i name="e_0_energy">   -955.35065770 </i>
   </energy>
  </scstep>
  <scstep>
   <time name="dav">    6.03    6.03</time>
   <time name="total">    6.72    6.72</time>
   <energy>
    <i name="e_fr_energy">   -955.92011586 </i>
    <i name="e_wo_entrp">   -955.68298851 </i>
    <i name="e_0_energy">   -955.80155219 </i>
   </energy>
  </scstep>
  <scstep>
   <time name="dav">    5.63    5.63</time>
   <time name="total">    6.76    6.76</time>
   <energy>
    <i name="e_fr_energy">   -967.18013025 </i>
    <i name="e_wo_entrp">   -967.04714503 </i>
    <i name="e_0_energy">   -967.11363764 </i>
   </energy>
  </scstep>
  <scstep>
   <time name="dav">    5.25    5.25</time>
   <time name="total">    6.39    6.39</time>
   <energy>
    <i name="e_fr_energy">   -930.84914785 </i>
    <i name="e_wo_entrp">   -930.78370268 </i>
    <i name="e_0_energy">   -930.81642527 </i>
   </energy>
  </scstep>
  <scstep>
   <time name="dav">    5.58    5.58</time>
   <time name="total">    6.72    6.72</time>
   <energy>
    <i name="e_fr_energy">   -938.29289178 </i>
    <i name="e_wo_entrp">   -938.19253006 </i>
    <i name="e_0_energy">   -938.24271092 </i>
   </energy>
  </scstep>
  <scstep>
   <time name="dav">    5.41    5.41</time>
   <time name="total">    6.56    6.56</time>
   <energy>
    <i name="e_fr_energy">   -930.61472993 </i>
    <i name="e_wo_entrp">   -930.53810564 </i>
    <i name="e_0_energy">   -930.57641778 </i>
   </energy>
  </scstep>
  <scstep>
   <time name="dav">    5.28    5.28</time>
   <time name="total">    6.42    6.42</time>
   <energy>
    <i name="e_fr_energy">   -927.73749869 </i>
    <i name="e_wo_entrp">   -927.67534016 </i>
    <i name="e_0_energy">   -927.70641943 </i>
   </energy>
  </scstep>
  <scstep>
   <time name="dav">    5.19    5.19</time>
   <time name="total">    6.34    6.34</time>
   <energy>
    <i name="e_fr_energy">   -927.52230032 </i>
    <i name="e_wo_entrp">   -927.46037028 </i>
    <i name="e_0_energy">   -927.49133530 </i>
   </energy>
  </scstep>
  <scstep>
   <time name="dav">    5.46    5.46</time>
   <time name="total">    6.62    6.62</time>
   <energy>
    <i name="e_fr_energy">   -927.55121782 </i>
    <i name="e_wo_entrp">   -927.49336748 </i>
    <i name="e_0_energy">   -927.52229265 </i>
   </energy>
  </scstep>
  <scstep>
   <time name="dav">    5.35    5.35</time>
   <time name="total">    6.51    6.51</time>
   <energy>
    <i name="e_fr_energy">   -927.49751797 </i>
    <i name="e_wo_entrp">   -927.43520056 </i>
    <i name="e_0_energy">   -927.46635926 </i>
   </energy>
  </scstep>
  <scstep>
   <time name="dav">    5.12    5.12</time>
   <time name="total">    6.31    6.31</time>
   <energy>
    <i name="e_fr_energy">   -927.47720228 </i>
    <i name="e_wo_entrp">   -927.41771905 </i>
    <i name="e_0_energy">   -927.44746067 </i>
   </energy>
  </scstep>
  <scstep>
   <time name="dav">    5.17    5.18</time>
   <time name="total">    6.37    6.37</time>
   <energy>
    <i name="e_fr_energy">   -927.46574128 </i>
    <i name="e_wo_entrp">   -927.40657214 </i>
    <i name="e_0_energy">   -927.43615671 </i>
   </energy>
  </scstep>
  <scstep>
   <time name="dav">    5.07    5.07</time>
   <time name="total">    6.25    6.25</time>
   <energy>
    <i name="e_fr_energy">   -927.46788372 </i>
    <i name="e_wo_entrp">   -927.40988292 </i>
    <i name="e_0_energy">   -927.43888332 </i>
   </energy>
  </scstep>
  <scstep>
   <time name="dav">    5.46    5.46</time>
   <time name="total">    6.64    6.65</time>
   <energy>
    <i name="e_fr_energy">   -927.47302459 </i>
    <i name="e_wo_entrp">   -927.41488500 </i>
    <i name="e_0_energy">   -927.44395480 </i>
   </energy>
  </scstep>
  <scstep>
   <time name="dav">    5.61    5.61</time>
   <time name="total">    6.83    6.83</time>
   <energy>
    <i name="e_fr_energy">   -927.48079923 </i>
    <i name="e_wo_entrp">   -927.42268160 </i>
    <i name="e_0_energy">   -927.45174041 </i>
   </energy>
  </scstep>
  <scstep>
   <time name="dav">    5.17    5.17</time>
   <time name="total">    6.40    6.40</time>
   <energy>
    <i name="e_fr_energy">   -927.48506638 </i>
    <i name="e_wo_entrp">   -927.42692445 </i>
    <i name="e_0_energy">   -927.45599542 </i>
   </energy>
  </scstep>
  <scstep>
   <time name="dav">    4.63    4.64</time>
   <time name="total">    5.87    5.87</time>
   <energy>
    <i name="e_fr_energy">   -927.48788915 </i>
    <i name="e_wo_entrp">   -927.42982284 </i>
    <i name="e_0_energy">   -927.45885600 </i>
   </energy>
  </scstep>
  <scstep>
   <time name="dav">    5.49    5.49</time>
   <time name="total">    6.75    6.75</time>
   <energy>
    <i name="e_fr_energy">   -927.48846392 </i>
    <i name="e_wo_entrp">   -927.43043121 </i>
    <i name="e_0_energy">   -927.45944756 </i>
   </energy>
  </scstep>
  <scstep>
   <time name="dav">    5.08    5.08</time>
   <time name="total">    6.33    6.33</time>
   <energy>
    <i name="e_fr_energy">   -927.48905965 </i>
    <i name="e_wo_entrp">   -927.43104663 </i>
    <i name="e_0_energy">   -927.46005314 </i>
   </energy>
  </scstep>
  <scstep>
   <time name="dav">    6.22    6.22</time>
   <time name="total">    7.50    7.50</time>
   <energy>
    <i name="e_fr_energy">   -927.49032435 </i>
    <i name="e_wo_entrp">   -927.43241445 </i>
    <i name="e_0_energy">   -927.46136940 </i>
   </energy>
  </scstep>
  <scstep>
   <time name="dav">    5.10    5.10</time>
   <time name="total">    6.40    6.40</time>
   <energy>
    <i name="e_fr_energy">   -927.49169643 </i>
    <i name="e_wo_entrp">   -927.43381910 </i>
    <i name="e_0_energy">   -927.46275777 </i>
   </energy>
  </scstep>
  <scstep>
   <time name="dav">    4.72    4.72</time>
   <time name="total">    6.05    6.05</time>
   <energy>
    <i name="e_fr_energy">   -927.49196454 </i>
    <i name="e_wo_entrp">   -927.43406336 </i>
    <i name="e_0_energy">   -927.46301395 </i>
   </energy>
  </scstep>
  <scstep>
   <time name="dav">    5.14    5.14</time>
   <time name="total">    6.45    6.45</time>
   <energy>
    <i name="e_fr_energy">   -927.49240277 </i>
    <i name="e_wo_entrp">   -927.43446436 </i>
    <i name="e_0_energy">   -927.46343357 </i>
   </energy>
  </scstep>
  <scstep>
   <time name="dav">    4.82    4.82</time>
   <time name="total">    6.15    6.15</time>
   <energy>
    <i name="e_fr_energy">   -927.49255469 </i>
    <i name="e_wo_entrp">   -927.43461198 </i>
    <i name="e_0_energy">   -927.46358333 </i>
   </energy>
  </scstep>
  <scstep>
   <time name="dav">    4.53    4.53</time>
   <time name="total">    5.87    5.87</time>
   <energy>
    <i name="e_fr_energy">   -927.49295807 </i>
    <i name="e_wo_entrp">   -927.43499316 </i>
    <i name="e_0_energy">   -927.46397562 </i>
   </energy>
  </scstep>
  <scstep>
   <time name="dav">    4.49    4.49</time>
   <time name="total">    5.88    5.89</time>
   <energy>
    <i name="e_fr_energy">   -927.49320131 </i>
    <i name="e_wo_entrp">   -927.43523353 </i>
    <i name="e_0_energy">   -927.46421742 </i>
   </energy>
  </scstep>
  <scstep>
   <time name="dav">    3.34    3.34</time>
   <time name="total">    4.73    4.73</time>
   <energy>
    <i name="e_fr_energy">   -927.49322787 </i>
    <i name="e_wo_entrp">   -927.43525934 </i>
    <i name="e_0_energy">   -927.46424361 </i>
   </energy>
  </scstep>
  <scstep>
   <time name="dav">    3.38    3.38</time>
   <time name="total">    4.80    4.80</time>
   <energy>
    <i name="e_fr_energy">   -927.49325713 </i>
    <i name="e_wo_entrp">   -927.43529078 </i>
    <i name="e_0_energy">   -927.46427395 </i>
   </energy>
  </scstep>
  <scstep>
   <time name="dav">    3.07    3.07</time>
   <time name="total">    4.49    4.49</time>
   <energy>
    <i name="e_fr_energy">   -927.49326312 </i>
    <i name="e_wo_entrp">   -927.43529444 </i>
    <i name="e_0_energy">   -927.46427878 </i>
   </energy>
  </scstep>
  <scstep>
   <time name="dav">    3.03    3.03</time>
   <time name="total">    3.49    3.49</time>
   <energy>
    <i name="alphaZ">    499.44056572 </i>
    <i name="ewald">  89069.52182393 </i>
    <i name="hartreedc">-104006.50356948 </i>
[...]
       <r>    -0.3338   125.4773   551.1741 </r>
       <r>    -0.2517   113.1464   560.4662 </r>
       <r>    -0.1696    67.3165   565.9945 </r>
       <r>    -0.0874    52.5660   570.3114 </r>
       <r>    -0.0053    88.7655   577.6012 </r>
       <r>     0.0768    47.0612   581.4661 </r>
       <r>     0.1589    95.8716   589.3395 </r>
       <r>     0.2411   121.0427   599.2800 </r>
       <r>     0.3232    60.4422   604.2437 </r>
       <r>     0.4053    95.2041   612.0623 </r>
       <r>     0.4874   113.9971   621.4242 </r>
       <r>     0.5696   119.6505   631.2504 </r>
       <r>     0.6517    63.3782   636.4553 </r>
       <r>     0.7338    31.5494   639.0462 </r>
       <r>     0.8159    61.6577   644.1098 </r>
       <r>     0.8981   157.4272   657.0384 </r>
       <r>     0.9802   156.7188   669.9088 </r>
       <r>     1.0623   184.7141   685.0783 </r>
       <r>     1.1444   138.6851   696.4677 </r>
       <r>     1.2265    41.3458   699.8631 </r>
       <r>     1.3087    25.9860   701.9972 </r>
       <r>     1.3908    92.4477   709.5894 </r>
       <r>     1.4729   164.9001   723.1317 </r>
       <r>     1.5550   163.7890   736.5827 </r>
       <r>     1.6372    88.0378   743.8127 </r>
       <r>     1.7193    81.9970   750.5467 </r>
       <r>     1.8014    86.5733   757.6564 </r>
       <r>     1.8835   121.0053   767.5939 </r>
       <r>     1.9657   142.6823   779.3115 </r>
       <r>     2.0478    87.9291   786.5327 </r>
       <r>     2.1299   123.7420   796.6949 </r>
       <r>     2.2120    59.8326   801.6086 </r>
       <r>     2.2942    32.1776   804.2511 </r>
       <r>     2.3763    56.4282   808.8852 </r>
       <r>     2.4584   143.6664   820.6837 </r>
       <r>     2.5405   137.4812   831.9742 </r>
       <r>     2.6227   130.4832   842.6901 </r>
       <r>     2.7048    63.0762   847.8701 </r>
       <r>     2.7869    63.2525   853.0647 </r>
       <r>     2.8690   149.5848   865.3492 </r>
       <r>     2.9512   263.9904   887.0292 </r>
       <r>     3.0333   194.7178   903.0202 </r>
       <r>     3.1154    88.2247   910.2656 </r>
       <r>     3.1975    65.0213   915.6054 </r>
       <r>     3.2796   101.4224   923.9346 </r>
       <r>     3.3618   130.4256   934.6457 </r>
       <r>     3.4439   167.3515   948.3893 </r>
       <r>     3.5260   106.3626   957.1243 </r>
       <r>     3.6081    94.9176   964.9193 </r>
       <r>     3.6903    66.6218   970.3905 </r>
       <r>     3.7724    61.6849   975.4564 </r>
       <r>     3.8545    84.9318   982.4313 </r>
       <r>     3.9366   106.2176   991.1543 </r>
       <r>     4.0188   223.2590  1009.4893 </r>
       <r>     4.1009    76.7747  1015.7943 </r>
       <r>     4.1830     2.5026  1015.9999 </r>
       <r>     4.2651     0.0017  1016.0000 </r>
       <r>     4.3473     0.0000  1016.0000 </r>
       <r>     4.4294     0.0000  1016.0000 </r>
       <r>     4.5115     0.0000  1016.0000 </r>
       <r>     4.5936     0.0000  1016.0000 </r>
       <r>     4.6758     0.0000  1016.0000 </r>
       <r>     4.7579     0.0000  1016.0000 </r>
       <r>     4.8400     0.0000  1016.0000 </r>
       <r>     4.9221     0.0000  1016.0000 </r>
       <r>     5.0043     0.0000  1016.0000 </r>
       <r>     5.0864     0.0000  1016.0000 </r>
       <r>     5.1685     0.0000  1016.0000 </r>
      </set>
     </set>
    </array>
   </total>
  </dos>
 </calculation>
 <structure name="finalpos" >
  <crystal>
   <varray name="basis" >
    <v>       0.00000000     -17.18057346       0.00000000 </v>
    <v>       0.00000000      -8.59028673     -14.87881307 </v>
    <v>      30.00000000       0.00000000       0.00000000 </v>
   </varray>
   <i name="volume">   7668.79622957 </i>
   <varray name="rec_basis" >
    <v>       0.00000000      -0.05820527       0.03360483 </v>
    <v>       0.00000000       0.00000000      -0.06720966 </v>
    <v>       0.03333333       0.00000000       0.00000000 </v>
   </varray>
  </crystal>
  <varray name="positions" >
   <v>       0.44435668       0.44461997       0.08258635 </v>
   <v>       0.44418573       0.77794980       0.08256050 </v>
   <v>       0.44455477       0.11108264       0.08257900 </v>
   <v>       0.77767769       0.44451554       0.08256160 </v>
   <v>       0.77797304       0.77738726       0.08244258 </v>
   <v>       0.77769592       0.11108264       0.08257900 </v>
   <v>       0.11114011       0.44451554       0.08256160 </v>
   <v>       0.11119780       0.77794980       0.08256050 </v>
   <v>       0.11107030       0.11119273       0.08275193 </v>
   <v>       0.55565399       0.55557249       0.15989096 </v>
   <v>       0.55561040       0.88873861       0.15982080 </v>
   <v>       0.55558745       0.22215843       0.15995348 </v>
   <v>       0.88902355       0.55528624       0.15997904 </v>
   <v>       0.88898433       0.88873861       0.15982080 </v>
   <v>       0.88903593       0.22224571       0.16011322 </v>
   <v>       0.22210686       0.55557249       0.15989096 </v>
   <v>       0.22216399       0.88900536       0.15998184 </v>
   <v>       0.22205169       0.22224571       0.16011322 </v>
   <v>       0.66675506       0.66676361       0.23559652 </v>
   <v>       0.66676442      -0.00019550       0.23532368 </v>
   <v>       0.66655386       0.33342958       0.23551349 </v>
   <v>      -0.00018533       0.66676361       0.23559652 </v>
   <v>      -0.00004569       0.00002417       0.23562421 </v>
   <v>       0.00011813       0.33309708       0.23582090 </v>
   <v>       0.33328050       0.66677233       0.23544769 </v>
   <v>       0.33335486       0.00002417       0.23562421 </v>
   <v>       0.33334990       0.33342958       0.23551349 </v>
   <v>       0.77780924       0.77771486       0.31163884 </v>
   <v>       0.77786244       0.11106633       0.31170653 </v>
   <v>       0.77777133       0.44438960       0.31182782 </v>
   <v>       0.11124069       0.77770580       0.31174385 </v>
   <v>       0.11116670       0.11099993       0.31226940 </v>
   <v>       0.11117241       0.44438960       0.31182782 </v>
   <v>       0.44438684       0.77770580       0.31174385 </v>
   <v>       0.44440456       0.11106633       0.31170653 </v>
   <v>       0.44442824       0.44447685       0.31181177 </v>
   <v>       0.88897271       0.88877291       0.38803207 </v>
   <v>       0.88888799       0.22218321       0.38838379 </v>
   <v>       0.88890176       0.55552981       0.38809835 </v>
   <v>       0.22218109       0.88897114       0.38819279 </v>
   <v>       0.22226213       0.22218321       0.38838379 </v>
   <v>       0.22255283       0.55559315       0.38820716 </v>
   <v>       0.55558771       0.88877291       0.38803207 </v>
   <v>       0.55562195       0.22208944       0.38797892 </v>
   <v>       0.55518735       0.55559315       0.38820716 </v>
   <v>      -0.00011242       0.00001430       0.46397420 </v>
   <v>       0.00003441       0.33326451       0.46411409 </v>
   <v>      -0.00072448       0.66715291       0.46360529 </v>
   <v>       0.33343145       0.00001430       0.46397420 </v>
   <v>       0.33351136       0.33272090       0.46336175 </v>
   <v>       0.33324140       0.66685054       0.46361727 </v>
   <v>       0.66679169      -0.00025006       0.46354601 </v>
   <v>       0.66710108       0.33272090       0.46336175 </v>
   <v>       0.66690490       0.66715291       0.46360529 </v>
   <v>       0.11103307       0.11126720       0.54154048 </v>
   <v>       0.11071368       0.44433657       0.54120517 </v>
   <v>       0.11171325       0.77779416       0.54112614 </v>
   <v>       0.44483318       0.11100428       0.54122774 </v>
   <v>       0.44622318       0.44088697       0.54141947 </v>
   <v>       0.44382593       0.77779416       0.54112614 </v>
   <v>       0.77749587       0.11100428       0.54122774 </v>
   <v>       0.77828309       0.44433657       0.54120517 </v>
   <v>       0.77772935       0.77787464       0.54080877 </v>
   <v>       0.27784887       0.27780677       0.08256160 </v>
   <v>       0.27795330       0.61102335       0.08258635 </v>
   <v>       0.27784887       0.94434436       0.08256160 </v>
   <v>       0.61128314       0.27786447       0.08256050 </v>
   <v>       0.61128314       0.61085239       0.08256050 </v>
   <v>       0.61072059       0.94463970       0.08244258 </v>
   <v>       0.94452606       0.27773697       0.08275193 </v>
   <v>       0.94441597       0.61122144       0.08257900 </v>
   <v>       0.94441597       0.94436259       0.08257900 </v>
   <v>       0.38890582       0.38877352       0.15989096 </v>
   <v>       0.38890582       0.72232066       0.15989096 </v>
   <v>       0.38861957       0.05569021       0.15997904 </v>
   <v>       0.72233869       0.38883066       0.15998184 </v>
   <v>       0.72207194       0.72227706       0.15982080 </v>
   <v>       0.72207194       0.05565099       0.15982080 </v>
   <v>       0.05557905       0.38871836       0.16011322 </v>
   <v>       0.05549176       0.72225412       0.15995348 </v>
   <v>       0.05557905       0.05570259       0.16011322 </v>
   <v>       0.50010566       0.49994717       0.23544769 </v>
   <v>       0.50009694       0.83342172       0.23559652 </v>
   <v>       0.50009694       0.16648133       0.23559652 </v>
   <v>       0.83335750       0.50002153       0.23562421 </v>
   <v>       0.83313783       0.83343109       0.23532368 </v>
   <v>       0.83335750       0.16662098       0.23562421 </v>
   <v>       0.16676291       0.50001657       0.23551349 </v>
   <v>       0.16676291       0.83322052       0.23551349 </v>
   <v>       0.16643042       0.16678479       0.23582090 </v>
   <v>       0.61103913       0.61105351       0.31174385 </v>
   <v>       0.61104819       0.94447590       0.31163884 </v>
   <v>       0.61103913       0.27790736       0.31174385 </v>
   <v>       0.94439967       0.61107123       0.31170653 </v>
   <v>       0.94439967       0.94452910       0.31170653 </v>
   <v>       0.94433326       0.27783337       0.31226940 </v>
   <v>       0.27781019       0.61109491       0.31181177 </v>
   <v>       0.27772293       0.94443799       0.31182782 </v>
   <v>       0.27772293       0.27783907       0.31182782 </v>
   <v>       0.72210624       0.72225438       0.38803207 </v>
   <v>       0.72210624       0.05563938       0.38803207 </v>
   <v>       0.72230448       0.38884776       0.38819279 </v>
   <v>       0.05542277       0.72228861       0.38797892 </v>
   <v>       0.05551655       0.05555466       0.38838379 </v>
   <v>       0.05551655       0.38892880       0.38838379 </v>
   <v>       0.38892648       0.72185402       0.38820716 </v>
   <v>       0.38886314       0.05556843       0.38809835 </v>
   <v>       0.38892648       0.38921950       0.38820716 </v>
   <v>       0.83308328       0.83345836       0.46354601 </v>
   <v>       0.83334763       0.16655425       0.46397420 </v>
   <v>       0.83334763       0.50009812       0.46397420 </v>
   <v>       0.16605423       0.83376774       0.46336175 </v>
   <v>       0.16659785       0.16670108       0.46411409 </v>
   <v>       0.16605423       0.50017802       0.46336175 </v>
   <v>       0.50048624       0.83357157       0.46360529 </v>
   <v>       0.50048624       0.16594219       0.46360529 </v>
   <v>       0.50018387       0.49990806       0.46361727 </v>
   <v>       0.94433761       0.94416253       0.54122774 </v>
   <v>       0.94460053       0.27769973       0.54154048 </v>
   <v>       0.94433761       0.61149985       0.54122774 </v>
   <v>       0.27766990       0.94494975       0.54120517 </v>
   <v>       0.27766990       0.27738034       0.54120517 </v>
   <v>       0.27422031       0.61288985       0.54141947 </v>
   <v>       0.61120797       0.94439601       0.54080877 </v>
   <v>       0.61112749       0.27837991       0.54112614 </v>
   <v>       0.61112749       0.61049259       0.54112614 </v>
   <v>       0.27778728       0.44445395       0.08228406 </v>
   <v>       0.27778728       0.77775877       0.08228406 </v>
   <v>       0.27773163       0.11113419       0.08277234 </v>
   <v>       0.61109210       0.44445395       0.08228406 </v>
   <v>       0.61098929       0.77765596       0.08259153 </v>
   <v>       0.61098929       0.11135475       0.08259153 </v>
   <v>       0.94446752       0.44439829       0.08277234 </v>
   <v>       0.94468809       0.77765596       0.08259153 </v>
   <v>       0.94446752       0.11113419       0.08277234 </v>
   <v>       0.38888889       0.55555556       0.16006023 </v>
   <v>       0.38870956       0.88905854       0.15988812 </v>
   <v>       0.38870956       0.22223190       0.15988812 </v>
   <v>       0.72239187       0.55537623       0.15988812 </v>
   <v>       0.72222222       0.88888889       0.15977839 </v>
   <v>       0.72239187       0.22223190       0.15988812 </v>
   <v>       0.05556524       0.55537623       0.15988812 </v>
   <v>       0.05556524       0.88905854       0.15988812 </v>
   <v>       0.05555556       0.22222222       0.16016665 </v>
   <v>       0.49992825       0.66659491       0.23534444 </v>
   <v>       0.50017529      -0.00008764       0.23537520 </v>
   <v>       0.49992825       0.33347684       0.23534444 </v>
   <v>       0.83324569       0.66684195       0.23537520 </v>
   <v>       0.83324569      -0.00008764       0.23537520 </v>
   <v>       0.83349552       0.33325224       0.23565612 </v>
   <v>       0.16681018       0.66659491       0.23534444 </v>
   <v>       0.16658557       0.00016219       0.23565612 </v>
   <v>       0.16658557       0.33325224       0.23565612 </v>
   <v>       0.61125156       0.77791822       0.31157714 </v>
   <v>       0.61125156       0.11083022       0.31157714 </v>
   <v>       0.61100062       0.44449969       0.31184988 </v>
   <v>       0.94416355       0.77791822       0.31157714 </v>
   <v>       0.94455045       0.11121711       0.31205186 </v>
   <v>       0.94455045       0.44423244       0.31205186 </v>
   <v>       0.27783302       0.77766729       0.31184988 </v>
   <v>       0.27756578       0.11121711       0.31205186 </v>
   <v>       0.27783302       0.44449969       0.31184988 </v>
   <v>       0.72222222       0.88888889       0.38820646 </v>
   <v>       0.72214782       0.22214070       0.38804741 </v>
   <v>       0.72214782       0.55571148       0.38804741 </v>
   <v>       0.05547404       0.88881449       0.38804741 </v>
   <v>       0.05555556       0.22222222       0.38853044 </v>
   <v>       0.05547404       0.55571148       0.38804741 </v>
   <v>       0.38904481       0.88881449       0.38804741 </v>
   <v>       0.38904481       0.22214070       0.38804741 </v>
   <v>       0.38888889       0.55555556       0.38787653 </v>
   <v>       0.83334534       0.00001200       0.46366194 </v>
   <v>       0.83379065       0.33310467       0.46390308 </v>
   <v>       0.83334534       0.66664266       0.46366194 </v>
   <v>       0.16643801       0.00045732       0.46390308 </v>
   <v>       0.16643801       0.33310467       0.46390308 </v>
   <v>       0.16566220       0.66716890       0.46332396 </v>
   <v>       0.49997599       0.00001200       0.46366194 </v>
   <v>       0.50050223       0.33232887       0.46332396 </v>
   <v>       0.50050223       0.66716890       0.46332396 </v>
   <v>       0.94453967       0.11120634       0.54157686 </v>
   <v>       0.94453967       0.44425398       0.54157686 </v>
   <v>       0.94507273       0.77746364       0.54128042 </v>
   <v>       0.27758732       0.11120634       0.54157686 </v>
   <v>       0.27626423       0.44293089       0.53928506 </v>
   <v>       0.27626423       0.78080488       0.53928506 </v>
   <v>       0.61079697       0.11173939       0.54128042 </v>
   <v>       0.61413821       0.44293089       0.53928506 </v>
   <v>       0.61079697       0.77746364       0.54128042 </v>
   <v>       0.44418573       0.27786447       0.08256050 </v>
   <v>       0.44435668       0.61102335       0.08258635 </v>
   <v>       0.44455477       0.94436259       0.08257900 </v>
   <v>       0.77767769       0.27780677       0.08256160 </v>
   <v>       0.77769592       0.61122144       0.08257900 </v>
   <v>       0.77797304       0.94463970       0.08244258 </v>
   <v>       0.11107030       0.27773697       0.08275193 </v>
   <v>       0.11119780       0.61085239       0.08256050 </v>
   <v>       0.11114011       0.94434436       0.08256160 </v>
   <v>       0.55565399       0.38877352       0.15989096 </v>
   <v>       0.55558745       0.72225412       0.15995348 </v>
   <v>       0.55561040       0.05565099       0.15982080 </v>
   <v>       0.88903593       0.38871836       0.16011322 </v>
   <v>       0.88898433       0.72227706       0.15982080 </v>
   <v>       0.88902355       0.05569021       0.15997904 </v>
   <v>       0.22216399       0.38883066       0.15998184 </v>
   <v>       0.22210686       0.72232066       0.15989096 </v>
   <v>       0.22205169       0.05570259       0.16011322 </v>
   <v>       0.66655386       0.50001657       0.23551349 </v>
   <v>       0.66676442       0.83343109       0.23532368 </v>
   <v>       0.66675506       0.16648133       0.23559652 </v>
   <v>      -0.00004569       0.50002153       0.23562421 </v>
   <v>      -0.00018533       0.83342172       0.23559652 </v>
   <v>       0.00011813       0.16678479       0.23582090 </v>
   <v>       0.33328050       0.49994717       0.23544769 </v>
   <v>       0.33334990       0.83322052       0.23551349 </v>
   <v>       0.33335486       0.16662098       0.23562421 </v>
   <v>       0.77786244       0.61107123       0.31170653 </v>
   <v>       0.77780924       0.94447590       0.31163884 </v>
   <v>       0.77777133       0.27783907       0.31182782 </v>
   <v>       0.11124069       0.61105351       0.31174385 </v>
   <v>       0.11117241       0.94443799       0.31182782 </v>
   <v>       0.11116670       0.27783337       0.31226940 </v>
   <v>       0.44442824       0.61109491       0.31181177 </v>
   <v>       0.44440456       0.94452910       0.31170653 </v>
   <v>       0.44438684       0.27790736       0.31174385 </v>
   <v>       0.88897271       0.72225438       0.38803207 </v>
   <v>       0.88890176       0.05556843       0.38809835 </v>
   <v>       0.88888799       0.38892880       0.38838379 </v>
   <v>       0.22255283       0.72185402       0.38820716 </v>
   <v>       0.22226213       0.05555466       0.38838379 </v>
   <v>       0.22218109       0.38884776       0.38819279 </v>
   <v>       0.55562195       0.72228861       0.38797892 </v>
   <v>       0.55558771       0.05563938       0.38803207 </v>
   <v>       0.55518735       0.38921950       0.38820716 </v>
   <v>      -0.00072448       0.83357157       0.46360529 </v>
   <v>       0.00003441       0.16670108       0.46411409 </v>
   <v>      -0.00011242       0.50009812       0.46397420 </v>
   <v>       0.33351136       0.83376774       0.46336175 </v>
   <v>       0.33343145       0.16655425       0.46397420 </v>
   <v>       0.33324140       0.49990806       0.46361727 </v>
   <v>       0.66679169       0.83345836       0.46354601 </v>
   <v>       0.66690490       0.16594219       0.46360529 </v>
   <v>       0.66710108       0.50017802       0.46336175 </v>
   <v>       0.11071368       0.94494975       0.54120517 </v>
   <v>       0.11103307       0.27769973       0.54154048 </v>
   <v>       0.11171325       0.61049259       0.54112614 </v>
   <v>       0.44483318       0.94416253       0.54122774 </v>
   <v>       0.44382593       0.27837991       0.54112614 </v>
   <v>       0.44622318       0.61288985       0.54141947 </v>
   <v>       0.77772935       0.94439601       0.54080877 </v>
   <v>       0.77828309       0.27738034       0.54120517 </v>
   <v>       0.77749587       0.61149985       0.54122774 </v>
   <v>       0.38888889       0.55555556       0.56634975 </v>
  </varray>
 </structure>
</modeling>
