LAMMPS (24 Mar 2022)
OMP_NUM_THREADS environment is not set. Defaulting to 1 thread. (src/comm.cpp:98)
  using 1 OpenMP thread(s) per MPI task
Reading data file ...
  triclinic box = (0 0 0) to (17.180573 14.878812 37.6) with tilt (-8.5902853 0 0)
  1 by 1 by 1 MPI processor grid
  reading atoms ...
  252 atoms
  read_data CPU = 0.051 seconds
WARNING: Using 'neigh_modify every 1 delay 0 check yes' setting during minimization (src/min.cpp:187)
Neighbor list info ...
  update every 1 steps, delay 0 steps, check yes
  max neighbors/atom: 2000, page size: 100000
  master list distance cutoff = 8.28721
  ghost atom cutoff = 8.28721
  binsize = 4.143605, bins = 7 4 10
  1 neighbor lists, perpetual/occasional/extra = 1 0 0
  (1) pair eam/alloy, perpetual
      attributes: half, newton on
      pair build: half/bin/newton/tri
      stencil: half/bin/3d/tri
      bin: standard
Setting up cg style minimization ...
  Unit style    : metal
  Current step  : 0
Per MPI rank memory allocation (min/avg/max) = 4.506 | 4.506 | 4.506 Mbytes
   Step          Temp          E_pair         E_mol          TotEng         Press     
         0   0             -807.2283       0             -807.2283       9160.8293    
Loop time of 4.021e-06 on 1 procs for 0 steps with 252 atoms

124.3% CPU use with 1 MPI tasks x 1 OpenMP threads

Minimization stats:
  Stopping criterion = max iterations
  Energy initial, next-to-last, final = 
     -807.228302224329                  0  -807.228302224329
  Force two-norm initial, final = 7.0624505 7.0624505
  Force max component initial, final = 1.2097956 1.2097956
  Final line search alpha, max atom move = 0 0
  Iterations, force evaluations = 0 0

MPI task timing breakdown:
Section |  min time  |  avg time  |  max time  |%varavg| %total
---------------------------------------------------------------
Pair    | 0          | 0          | 0          |   0.0 |  0.00
Neigh   | 0          | 0          | 0          |   0.0 |  0.00
Comm    | 0          | 0          | 0          |   0.0 |  0.00
Output  | 0          | 0          | 0          |   0.0 |  0.00
Modify  | 0          | 0          | 0          |   0.0 |  0.00
Other   |            | 4.021e-06  |            |       |100.00

Nlocal:            252 ave         252 max         252 min
Histogram: 1 0 0 0 0 0 0 0 0 0
Nghost:           1421 ave        1421 max        1421 min
Histogram: 1 0 0 0 0 0 0 0 0 0
Neighs:          14628 ave       14628 max       14628 min
Histogram: 1 0 0 0 0 0 0 0 0 0

Total # of neighbors = 14628
Ave neighs/atom = 58.047619
Neighbor list builds = 0
Dangerous builds = 0
Setting up Verlet run ...
  Unit style    : metal
  Current step  : 0
  Time step     : 0.01
Per MPI rank memory allocation (min/avg/max) = 4.391 | 4.391 | 4.391 Mbytes
   Step          Temp          E_pair         E_mol          TotEng         Press     
         0   300           -807.2283       0             -797.49501      10242.475    
       100   307.65251     -807.42299      0             -797.44142      10872.978    
       200   314.68272     -807.56841      0             -797.35875      8946.3568    
       300   331.90051     -808.15771      0             -797.38943      5094.5195    
       400   322.58127     -807.81346      0             -797.34754      1054.6252    
       500   328.41414     -808.01553      0             -797.36036     -4248.1849    
       600   325.51242     -807.96194      0             -797.40092     -6244.3398    
       700   312.35467     -807.51002      0             -797.3759      -8615.4179    
       800   290.20862     -806.7865       0             -797.37088     -9533.212     
       900   314.72856     -807.61483      0             -797.40368     -9205.3597    
      1000   307.01412     -807.33746      0             -797.3766      -7022.6527    
      1100   325.95049     -807.96378      0             -797.38855     -3974.418     
      1200   351.9473      -808.87029      0             -797.45161     -1558.3858    
      1300   340.01087     -808.46339      0             -797.43198      1291.9445    
      1400   337.38204     -808.3804       0             -797.43427      2990.6938    
      1500   327.47683     -808.07476      0             -797.45001      3841.2405    
      1600   323.51869     -807.9178       0             -797.42146      3252.3141    
      1700   316.31881     -807.66443      0             -797.40168      1971.0403    
      1800   329.33575     -808.08486      0             -797.3998       335.1231     
      1900   327.23694     -808.00977      0             -797.3928      -1525.6319    
      2000   323.25171     -807.87627      0             -797.3886      -2233.1673    
      2100   328.66442     -808.07701      0             -797.41372     -3923.3929    
      2200   307.41395     -807.35646      0             -797.38264     -4131.9443    
      2300   328.95259     -808.06782      0             -797.39518     -4148.806     
      2400   305.361       -807.3013       0             -797.39408     -3072.3093    
      2500   355.97001     -809.00898      0             -797.45979     -3160.3115    
      2600   325.89768     -808.00838      0             -797.43486     -1768.4689    
      2700   311.31053     -807.48888      0             -797.38863     -358.92965    
      2800   342.43039     -808.56184      0             -797.45193      827.85906    
      2900   329.08791     -808.0778       0             -797.40078      1278.181     
      3000   332.34174     -808.2034       0             -797.4208       1417.8737    
      3100   328.22346     -808.09875      0             -797.44977      327.80097    
      3200   335.09451     -808.31633      0             -797.44442     -299.29717    
      3300   337.4255      -808.38276      0             -797.43522     -1081.1668    
      3400   322.5254      -807.88888      0             -797.42477     -1133.3547    
      3500   327.16934     -808.03125      0             -797.41647     -2635.7325    
      3600   318.41504     -807.75396      0             -797.42321     -3664.1697    
      3700   299.74632     -807.12637      0             -797.40132     -4816.0547    
      3800   308.21282     -807.43234      0             -797.43259     -4905.2229    
      3900   316.1404      -807.67941      0             -797.42245     -4042.9816    
      4000   311.27242     -807.50903      0             -797.41002     -2760.321     
      4100   340.96078     -808.50184      0             -797.43961     -2251.5344    
      4200   318.09053     -807.74247      0             -797.42224     -837.34438    
      4300   314.62821     -807.6203       0             -797.41241     -1094.6511    
      4400   320.22207     -807.81427      0             -797.42489     -87.425374    
      4500   341.00517     -808.49661      0             -797.43294      511.80381    
      4600   324.52678     -807.95577      0             -797.42672      687.67767    
      4700   343.20295     -808.56047      0             -797.4255       207.97738    
      4800   322.19647     -807.87691      0             -797.42347     -791.89224    
      4900   328.18254     -808.06261      0             -797.41496     -1237.7628    
      5000   325.68714     -807.98571      0             -797.41902     -2618.9911    
      5100   328.58391     -808.08765      0             -797.42698     -3388.147     
      5200   333.76107     -808.25319      0             -797.42454     -3340.3006    
      5300   303.47721     -807.24489      0             -797.39878     -3619.7948    
      5400   300.80127     -807.12964      0             -797.37036     -3072.9793    
      5500   307.19719     -807.3724       0             -797.4056      -2597.2083    
      5600   347.07511     -808.69934      0             -797.43874     -2141.4508    
      5700   328.7408      -808.07533      0             -797.40956     -925.32137    
      5800   323.67583     -807.91401      0             -797.41258     -1463.8539    
      5900   348.62472     -808.75034      0             -797.43946     -1166.9583    
      6000   322.58239     -807.86639      0             -797.40043     -497.63824    
      6100   323.06086     -807.88451      0             -797.40302     -645.21124    
      6200   347.89325     -808.71391      0             -797.42676     -1190.4483    
      6300   333.75696     -808.24415      0             -797.41564     -2510.1326    
      6400   328.03767     -808.07034      0             -797.42739     -2624.2126    
      6500   316.68231     -807.64627      0             -797.37173     -1217.3074    
      6600   351.072       -808.83465      0             -797.44437     -2011.4199    
      6700   338.28878     -808.3912       0             -797.41566     -2315.8078    
      6800   313.88186     -807.60683      0             -797.42315     -1592.2248    
      6900   325.64734     -807.99044      0             -797.42504     -1166.2828    
      7000   340.89554     -808.51063      0             -797.45051     -504.82557    
      7100   306.43684     -807.33019      0             -797.38806     -299.61321    
      7200   330.51032     -808.14493      0             -797.42176     -627.55686    
      7300   316.81872     -807.69702      0             -797.41806     -944.52537    
      7400   301.01603     -807.13619      0             -797.36993     -1275.6769    
      7500   321.56664     -807.84029      0             -797.40729     -1689.6604    
      7600   323.2051      -807.91293      0             -797.42677     -1283.6228    
      7700   330.13224     -808.12555      0             -797.41464     -1857.6489    
      7800   348.03471     -808.71596      0             -797.42422     -2618.7125    
      7900   326.59136     -808.02685      0             -797.43082     -2709.765     
      8000   318.97696     -807.77262      0             -797.42364     -3086.8453    
      8100   341.87828     -808.51888      0             -797.42688     -3535.7832    
      8200   332.92161     -808.21452      0             -797.41311     -3117.9654    
      8300   324.28136     -807.92156      0             -797.40048     -2491.0447    
      8400   305.72569     -807.29415      0             -797.37509     -2719.8229    
      8500   320.4888      -807.80147      0             -797.40344     -2351.7298    
      8600   332.75933     -808.22303      0             -797.42689     -1576.0174    
      8700   326.05996     -808.0035       0             -797.42471     -1550.6438    
      8800   328.56329     -808.07561      0             -797.4156      -1276.6733    
      8900   338.84893     -808.41384      0             -797.42012     -1875.3665    
      9000   324.9348      -807.96499      0             -797.42271     -1343.826     
      9100   319.44823     -807.77685      0             -797.41257     -1378.5707    
      9200   318.47861     -807.75783      0             -797.42502     -1460.0818    
      9300   335.23677     -808.31056      0             -797.43404     -1497.2971    
      9400   323.68472     -807.89712      0             -797.39539     -1262.8173    
      9500   299.01722     -807.07975      0             -797.37835     -980.04082    
      9600   332.28108     -808.20274      0             -797.42211     -1199.0757    
      9700   336.87066     -808.37228      0             -797.44275     -1277.81      
      9800   331.82112     -808.19296      0             -797.42726     -856.98206    
      9900   331.83304     -808.2006       0             -797.43451     -1314.3577    
     10000   316.75162     -807.67792      0             -797.40114     -1924.7057    
Loop time of 4.98266 on 1 procs for 10000 steps with 252 atoms

Performance: 1734.013 ns/day, 0.014 hours/ns, 2006.960 timesteps/s
99.7% CPU use with 1 MPI tasks x 1 OpenMP threads

MPI task timing breakdown:
Section |  min time  |  avg time  |  max time  |%varavg| %total
---------------------------------------------------------------
Pair    | 4.7141     | 4.7141     | 4.7141     |   0.0 | 94.61
Neigh   | 0.0054231  | 0.0054231  | 0.0054231  |   0.0 |  0.11
Comm    | 0.05338    | 0.05338    | 0.05338    |   0.0 |  1.07
Output  | 0.17124    | 0.17124    | 0.17124    |   0.0 |  3.44
Modify  | 0.021742   | 0.021742   | 0.021742   |   0.0 |  0.44
Other   |            | 0.01675    |            |       |  0.34

Nlocal:            252 ave         252 max         252 min
Histogram: 1 0 0 0 0 0 0 0 0 0
Nghost:           1349 ave        1349 max        1349 min
Histogram: 1 0 0 0 0 0 0 0 0 0
Neighs:          14373 ave       14373 max       14373 min
Histogram: 1 0 0 0 0 0 0 0 0 0

Total # of neighbors = 14373
Ave neighs/atom = 57.035714
Neighbor list builds = 8
Dangerous builds = 1
System init for write_restart ...
Total wall time: 0:00:05
