       N       E                     dE             d eps       ncg     rms          rms(c)
DAV:   1     0.239626547791E+04    0.23963E+04   -0.20439E+05  3072   0.854E+02
DAV:   2    -0.701027578512E+03   -0.30973E+04   -0.29276E+04  4192   0.202E+02
DAV:   3    -0.944237588205E+03   -0.24321E+03   -0.23381E+03  4672   0.443E+01
DAV:   4    -0.954831926520E+03   -0.10594E+02   -0.99589E+01  4352   0.891E+00
DAV:   5    -0.956639882279E+03   -0.18080E+01   -0.10350E+01  5232   0.231E+00    0.433E+01
DAV:   6    -0.968848193414E+03   -0.12208E+02   -0.18949E+02  4176   0.163E+01    0.319E+01
DAV:   7    -0.945343150095E+03    0.23505E+02   -0.21916E+02  4128   0.203E+01    0.242E+01
DAV:   8    -0.100700159325E+04   -0.61658E+02   -0.11613E+02  4744   0.218E+01    0.238E+01
DAV:   9    -0.931992881318E+03    0.75009E+02   -0.71537E+01  4696   0.178E+01    0.100E+01
DAV:  10    -0.930633647003E+03    0.13592E+01   -0.43454E+01  3944   0.648E+00    0.613E+00
DAV:  11    -0.930131858879E+03    0.50179E+00   -0.81005E+00  3968   0.310E+00    0.597E+00
DAV:  12    -0.929339592831E+03    0.79227E+00   -0.12549E+00  3928   0.166E+00    0.376E+00
DAV:  13    -0.929166120171E+03    0.17347E+00   -0.56477E-01  4184   0.935E-01    0.138E+00
DAV:  14    -0.929184307757E+03   -0.18188E-01   -0.11937E-01  3776   0.508E-01    0.175E+00
DAV:  15    -0.929109334087E+03    0.74974E-01   -0.92211E-02  3520   0.359E-01    0.642E-01
DAV:  16    -0.929134913790E+03   -0.25580E-01   -0.12046E-01  3840   0.368E-01    0.398E+00
DAV:  17    -0.929083779575E+03    0.51134E-01   -0.32091E-02  3456   0.235E-01    0.469E+00
DAV:  18    -0.928996576952E+03    0.87203E-01   -0.18028E-01  4440   0.172E-01    0.894E-01
DAV:  19    -0.929081940503E+03   -0.85364E-01   -0.18037E-02  3280   0.159E-01    0.349E-01
DAV:  20    -0.929118817188E+03   -0.36877E-01   -0.20696E-02  4080   0.168E-01    0.159E+00
DAV:  21    -0.929109656930E+03    0.91603E-02   -0.11288E-02  3344   0.128E-01    0.182E+00
DAV:  22    -0.929100067203E+03    0.95897E-02   -0.30345E-03  4000   0.670E-02    0.162E+00
DAV:  23    -0.929097248981E+03    0.28182E-02   -0.18977E-03  3968   0.558E-02    0.113E+00
DAV:  24    -0.929102018270E+03   -0.47693E-02   -0.22547E-03  3944   0.526E-02    0.570E-01
DAV:  25    -0.929109330134E+03   -0.73119E-02   -0.19144E-03  3768   0.520E-02    0.128E-01
DAV:  26    -0.929115053743E+03   -0.57236E-02   -0.13521E-03  3864   0.444E-02    0.525E-01
DAV:  27    -0.929113661277E+03    0.13925E-02   -0.56024E-04  3224   0.352E-02    0.586E-01
DAV:  28    -0.929112554785E+03    0.11065E-02   -0.38829E-04  3264   0.174E-02    0.288E-01
DAV:  29    -0.929115037319E+03   -0.24825E-02   -0.27644E-04  3416   0.197E-02    0.103E-01
DAV:  30    -0.929116194286E+03   -0.11570E-02   -0.11629E-04  3544   0.146E-02    0.351E-02
DAV:  31    -0.929116904509E+03   -0.71022E-03   -0.40706E-05  3168   0.871E-03    0.289E-02
DAV:  32    -0.929117430214E+03   -0.52570E-03   -0.48903E-05  2960   0.763E-03    0.960E-03
DAV:  33    -0.929117675044E+03   -0.24483E-03   -0.93581E-06  2528   0.269E-03    0.116E-02
DAV:  34    -0.929117883107E+03   -0.20806E-03   -0.10076E-05  2440   0.278E-03    0.127E-02
DAV:  35    -0.929118017784E+03   -0.13468E-03   -0.90130E-06  2512   0.242E-03    0.189E-02
DAV:  36    -0.929118049871E+03   -0.32086E-04   -0.14627E-06  2104   0.136E-03    0.760E-03
DAV:  37    -0.929118067923E+03   -0.18052E-04   -0.10227E-06  1888   0.109E-03    0.415E-03
DAV:  38    -0.929118074706E+03   -0.67832E-05   -0.40411E-07  1848   0.816E-04    0.202E-03
DAV:  39    -0.929118077764E+03   -0.30579E-05   -0.15125E-07  1752   0.423E-04
   1 F= -.10018632E+04 E0= -.10018216E+04  d E =-.832221E-01
