   4   4   0   0
  0.7621563E+03  0.1450000E-08  0.1450000E-08  0.1450000E-08  0.5000000E-15
   1.0000000000000000E-004
  CAR 
 NiAl                                    
      2.19020106    -37.55124583  301     -5.16175437      1.00000000
    -37.551  0.0000E+00  0.0000E+00
    -37.419  0.0000E+00  0.0000E+00
    -37.286  0.0000E+00  0.0000E+00
    -37.154  0.0000E+00  0.0000E+00
    -37.021  0.0000E+00  0.0000E+00
    -36.889  0.0000E+00  0.0000E+00
    -36.756  0.0000E+00  0.0000E+00
    -36.624  0.0000E+00  0.0000E+00
    -36.491  0.0000E+00  0.0000E+00
    -36.359  0.0000E+00  0.0000E+00
    -36.227  0.0000E+00  0.0000E+00
    -36.094  0.0000E+00  0.0000E+00
    -35.962  0.6583E-08  0.8721E-09
    -35.829  0.1291E+00  0.1711E-01
    -35.697  0.1366E+02  0.1827E+01
    -35.564  0.1306E+01  0.2000E+01
    -35.432  0.2440E-05  0.2000E+01
    -35.299  0.0000E+00  0.2000E+01
    -35.167  0.0000E+00  0.2000E+01
    -35.034  0.0000E+00  0.2000E+01
    -34.902  0.0000E+00  0.2000E+01
    -34.769  0.0000E+00  0.2000E+01
    -34.637  0.0000E+00  0.2000E+01
    -34.504  0.0000E+00  0.2000E+01
    -34.372  0.0000E+00  0.2000E+01
    -34.239  0.0000E+00  0.2000E+01
    -34.107  0.0000E+00  0.2000E+01
    -33.975  0.0000E+00  0.2000E+01
    -33.842  0.0000E+00  0.2000E+01
    -33.710  0.0000E+00  0.2000E+01
    -33.577  0.0000E+00  0.2000E+01
    -33.445  0.0000E+00  0.2000E+01
    -33.312  0.0000E+00  0.2000E+01
    -33.180  0.0000E+00  0.2000E+01
    -33.047  0.0000E+00  0.2000E+01
    -32.915  0.0000E+00  0.2000E+01
    -32.782  0.0000E+00  0.2000E+01
    -32.650  0.0000E+00  0.2000E+01
    -32.517  0.0000E+00  0.2000E+01
    -32.385  0.0000E+00  0.2000E+01
    -32.252  0.0000E+00  0.2000E+01
    -32.120  0.0000E+00  0.2000E+01
    -31.987  0.0000E+00  0.2000E+01
    -31.855  0.0000E+00  0.2000E+01
    -31.723  0.0000E+00  0.2000E+01
    -31.590  0.0000E+00  0.2000E+01
    -31.458  0.6053E-08  0.2000E+01
    -31.325  0.1245E+00  0.2016E+01
    -31.193  0.1363E+02  0.3823E+01
    -31.060  0.1338E+01  0.4000E+01
    -30.928  0.2618E-05  0.4000E+01
    -30.795  0.0000E+00  0.4000E+01
    -30.663  0.0000E+00  0.4000E+01
    -30.530  0.0000E+00  0.4000E+01
    -30.398  0.0000E+00  0.4000E+01
    -30.265  0.0000E+00  0.4000E+01
    -30.133  0.0000E+00  0.4000E+01
    -30.000  0.0000E+00  0.4000E+01
    -29.868  0.0000E+00  0.4000E+01
    -29.735  0.0000E+00  0.4000E+01
    -29.603  0.0000E+00  0.4000E+01
    -29.470  0.0000E+00  0.4000E+01
    -29.338  0.0000E+00  0.4000E+01
    -29.206  0.0000E+00  0.4000E+01
    -29.073  0.0000E+00  0.4000E+01
    -28.941  0.0000E+00  0.4000E+01
    -28.808  0.0000E+00  0.4000E+01
    -28.676  0.0000E+00  0.4000E+01
    -28.543  0.0000E+00  0.4000E+01
    -28.411  0.0000E+00  0.4000E+01
    -28.278  0.0000E+00  0.4000E+01
    -28.146  0.0000E+00  0.4000E+01
    -28.013  0.0000E+00  0.4000E+01
    -27.881  0.0000E+00  0.4000E+01
    -27.748  0.0000E+00  0.4000E+01
    -27.616  0.0000E+00  0.4000E+01
    -27.483  0.0000E+00  0.4000E+01
    -27.351  0.0000E+00  0.4000E+01
    -27.218  0.0000E+00  0.4000E+01
    -27.086  0.0000E+00  0.4000E+01
    -26.954  0.0000E+00  0.4000E+01
    -26.821  0.0000E+00  0.4000E+01
    -26.689  0.0000E+00  0.4000E+01
    -26.556  0.0000E+00  0.4000E+01
    -26.424  0.0000E+00  0.4000E+01
    -26.291  0.0000E+00  0.4000E+01
    -26.159  0.0000E+00  0.4000E+01
    -26.026  0.0000E+00  0.4000E+01
    -25.894  0.0000E+00  0.4000E+01
    -25.761  0.0000E+00  0.4000E+01
    -25.629  0.0000E+00  0.4000E+01
    -25.496  0.0000E+00  0.4000E+01
    -25.364  0.0000E+00  0.4000E+01
    -25.231  0.0000E+00  0.4000E+01
    -25.099  0.0000E+00  0.4000E+01
    -24.966  0.0000E+00  0.4000E+01
    -24.834  0.0000E+00  0.4000E+01
    -24.702  0.0000E+00  0.4000E+01
    -24.569  0.0000E+00  0.4000E+01
    -24.437  0.0000E+00  0.4000E+01
    -24.304  0.0000E+00  0.4000E+01
    -24.172  0.0000E+00  0.4000E+01
    -24.039  0.0000E+00  0.4000E+01
    -23.907  0.0000E+00  0.4000E+01
    -23.774  0.0000E+00  0.4000E+01
    -23.642  0.0000E+00  0.4000E+01
    -23.509  0.0000E+00  0.4000E+01
    -23.377  0.0000E+00  0.4000E+01
    -23.244  0.0000E+00  0.4000E+01
    -23.112  0.0000E+00  0.4000E+01
    -22.979  0.0000E+00  0.4000E+01
    -22.847  0.0000E+00  0.4000E+01
    -22.714  0.0000E+00  0.4000E+01
    -22.582  0.0000E+00  0.4000E+01
    -22.449  0.0000E+00  0.4000E+01
    -22.317  0.0000E+00  0.4000E+01
    -22.185  0.0000E+00  0.4000E+01
    -22.052  0.0000E+00  0.4000E+01
    -21.920  0.0000E+00  0.4000E+01
    -21.787  0.0000E+00  0.4000E+01
    -21.655  0.0000E+00  0.4000E+01
    -21.522  0.0000E+00  0.4000E+01
    -21.390  0.0000E+00  0.4000E+01
    -21.257  0.0000E+00  0.4000E+01
    -21.125  0.0000E+00  0.4000E+01
    -20.992  0.0000E+00  0.4000E+01
    -20.860  0.0000E+00  0.4000E+01
    -20.727  0.3365E-07  0.4000E+01
    -20.595  0.2728E+00  0.4036E+01
    -20.462  0.2535E+02  0.7394E+01
    -20.330  0.4571E+01  0.8000E+01
    -20.197  0.7563E-04  0.8000E+01
    -20.065  0.0000E+00  0.8000E+01
    -19.933  0.0000E+00  0.8000E+01
    -19.800  0.0000E+00  0.8000E+01
    -19.668  0.0000E+00  0.8000E+01
    -19.535  0.0000E+00  0.8000E+01
    -19.403  0.0000E+00  0.8000E+01
    -19.270  0.0000E+00  0.8000E+01
    -19.138  0.0000E+00  0.8000E+01
    -19.005  0.0000E+00  0.8000E+01
    -18.873  0.0000E+00  0.8000E+01
    -18.740  0.0000E+00  0.8000E+01
    -18.608  0.0000E+00  0.8000E+01
    -18.475  0.0000E+00  0.8000E+01
    -18.343  0.0000E+00  0.8000E+01
    -18.210  0.0000E+00  0.8000E+01
    -18.078  0.0000E+00  0.8000E+01
    -17.945  0.0000E+00  0.8000E+01
    -17.813  0.0000E+00  0.8000E+01
    -17.681  0.0000E+00  0.8000E+01
    -17.548  0.0000E+00  0.8000E+01
    -17.416  0.0000E+00  0.8000E+01
    -17.283  0.0000E+00  0.8000E+01
    -17.151  0.0000E+00  0.8000E+01
    -17.018  0.0000E+00  0.8000E+01
    -16.886  0.0000E+00  0.8000E+01
    -16.753  0.0000E+00  0.8000E+01
    -16.621  0.0000E+00  0.8000E+01
    -16.488  0.0000E+00  0.8000E+01
    -16.356  0.0000E+00  0.8000E+01
    -16.223  0.0000E+00  0.8000E+01
    -16.091  0.2879E-09  0.8000E+01
    -15.958  0.3155E-01  0.8004E+01
    -15.826  0.1222E+02  0.9623E+01
    -15.693  0.2849E+01  0.1000E+02
    -15.561  0.2767E-04  0.1000E+02
    -15.429  0.0000E+00  0.1000E+02
    -15.296  0.0000E+00  0.1000E+02
    -15.164  0.0000E+00  0.1000E+02
    -15.031  0.0000E+00  0.1000E+02
    -14.899  0.0000E+00  0.1000E+02
    -14.766  0.0000E+00  0.1000E+02
    -14.634  0.0000E+00  0.1000E+02
    -14.501  0.0000E+00  0.1000E+02
    -14.369  0.0000E+00  0.1000E+02
    -14.236  0.0000E+00  0.1000E+02
    -14.104  0.0000E+00  0.1000E+02
    -13.971  0.0000E+00  0.1000E+02
    -13.839  0.1828E-06  0.1000E+02
    -13.706  0.5054E+00  0.1007E+02
    -13.574  0.1417E+02  0.1194E+02
    -13.441  0.4190E+00  0.1200E+02
    -13.309  0.7902E+00  0.1210E+02
    -13.176  0.2828E+02  0.1585E+02
    -13.044  0.1273E+01  0.1602E+02
    -12.912  0.1374E+02  0.1784E+02
    -12.779  0.1208E+01  0.1800E+02
    -12.647  0.1948E-05  0.1800E+02
    -12.514  0.0000E+00  0.1800E+02
    -12.382  0.0000E+00  0.1800E+02
    -12.249  0.0000E+00  0.1800E+02
    -12.117  0.0000E+00  0.1800E+02
    -11.984  0.0000E+00  0.1800E+02
    -11.852  0.0000E+00  0.1800E+02
    -11.719  0.0000E+00  0.1800E+02
    -11.587  0.0000E+00  0.1800E+02
    -11.454  0.0000E+00  0.1800E+02
    -11.322  0.0000E+00  0.1800E+02
    -11.189  0.0000E+00  0.1800E+02
    -11.057  0.0000E+00  0.1800E+02
    -10.924  0.0000E+00  0.1800E+02
    -10.792  0.0000E+00  0.1800E+02
    -10.660  0.0000E+00  0.1800E+02
    -10.527  0.0000E+00  0.1800E+02
    -10.395  0.0000E+00  0.1800E+02
    -10.262  0.0000E+00  0.1800E+02
    -10.130  0.0000E+00  0.1800E+02
     -9.997  0.0000E+00  0.1800E+02
     -9.865  0.0000E+00  0.1800E+02
     -9.732  0.0000E+00  0.1800E+02
     -9.600  0.0000E+00  0.1800E+02
     -9.467  0.0000E+00  0.1800E+02
     -9.335  0.0000E+00  0.1800E+02
     -9.202  0.0000E+00  0.1800E+02
     -9.070  0.0000E+00  0.1800E+02
     -8.937  0.0000E+00  0.1800E+02
     -8.805  0.0000E+00  0.1800E+02
     -8.672  0.0000E+00  0.1800E+02
     -8.540  0.0000E+00  0.1800E+02
     -8.408  0.0000E+00  0.1800E+02
     -8.275  0.3340E-09  0.1800E+02
     -8.143  0.3382E-01  0.1800E+02
     -8.010  0.1230E+02  0.1963E+02
     -7.878  0.2760E+01  0.2000E+02
     -7.745  0.2488E-04  0.2000E+02
     -7.613  0.1173E-13  0.2000E+02
     -7.480  0.1778E-03  0.2000E+02
     -7.348  0.4757E+01  0.2063E+02
     -7.215  0.1033E+02  0.2200E+02
     -7.083  0.8251E-02  0.2200E+02
     -6.950  0.1770E-10  0.2200E+02
     -6.818  0.0000E+00  0.2200E+02
     -6.685  0.0000E+00  0.2200E+02
     -6.553  0.0000E+00  0.2200E+02
     -6.420  0.0000E+00  0.2200E+02
     -6.288  0.0000E+00  0.2200E+02
     -6.156  0.0000E+00  0.2200E+02
     -6.023  0.0000E+00  0.2200E+02
     -5.891  0.0000E+00  0.2200E+02
     -5.758  0.0000E+00  0.2200E+02
     -5.626  0.0000E+00  0.2200E+02
     -5.493  0.0000E+00  0.2200E+02
     -5.361  0.2847E-06  0.2200E+02
     -5.228  0.9115E+00  0.2212E+02
     -5.096  0.2835E+02  0.2588E+02
     -4.963  0.9366E+00  0.2600E+02
     -4.831  0.3052E-06  0.2600E+02
     -4.698  0.1014E-01  0.2600E+02
     -4.566  0.1064E+02  0.2741E+02
     -4.433  0.4447E+01  0.2800E+02
     -4.301  0.1367E-03  0.2800E+02
     -4.168  0.0000E+00  0.2800E+02
     -4.036  0.0000E+00  0.2800E+02
     -3.903  0.0000E+00  0.2800E+02
     -3.771  0.0000E+00  0.2800E+02
     -3.639  0.0000E+00  0.2800E+02
     -3.506  0.0000E+00  0.2800E+02
     -3.374  0.0000E+00  0.2800E+02
     -3.241  0.0000E+00  0.2800E+02
     -3.109  0.0000E+00  0.2800E+02
     -2.976  0.0000E+00  0.2800E+02
     -2.844  0.0000E+00  0.2800E+02
     -2.711  0.0000E+00  0.2800E+02
     -2.579  0.0000E+00  0.2800E+02
     -2.446  0.0000E+00  0.2800E+02
     -2.314  0.0000E+00  0.2800E+02
     -2.181  0.0000E+00  0.2800E+02
     -2.049  0.0000E+00  0.2800E+02
     -1.916  0.0000E+00  0.2800E+02
     -1.784  0.0000E+00  0.2800E+02
     -1.651  0.0000E+00  0.2800E+02
     -1.519  0.0000E+00  0.2800E+02
     -1.387  0.0000E+00  0.2800E+02
     -1.254  0.0000E+00  0.2800E+02
     -1.122  0.0000E+00  0.2800E+02
     -0.989  0.0000E+00  0.2800E+02
     -0.857  0.0000E+00  0.2800E+02
     -0.724  0.0000E+00  0.2800E+02
     -0.592  0.0000E+00  0.2800E+02
     -0.459  0.3823E-09  0.2800E+02
     -0.327  0.3601E-01  0.2800E+02
     -0.194  0.1238E+02  0.2964E+02
     -0.062  0.2681E+01  0.3000E+02
      0.071  0.2256E-04  0.3000E+02
      0.203  0.2440E-05  0.3000E+02
      0.336  0.1306E+01  0.3017E+02
      0.468  0.1366E+02  0.3198E+02
      0.601  0.1291E+00  0.3200E+02
      0.733  0.6583E-08  0.3200E+02
      0.865  0.0000E+00  0.3200E+02
      0.998  0.0000E+00  0.3200E+02
      1.130  0.0000E+00  0.3200E+02
      1.263  0.0000E+00  0.3200E+02
      1.395  0.0000E+00  0.3200E+02
      1.528  0.0000E+00  0.3200E+02
      1.660  0.0000E+00  0.3200E+02
      1.793  0.0000E+00  0.3200E+02
      1.925  0.0000E+00  0.3200E+02
      2.058  0.0000E+00  0.3200E+02
      2.190  0.0000E+00  0.3200E+02
