    4    4    1    1
  0.7621563E+03  0.1450000E-08  0.1450000E-08  0.1450000E-08  0.5000000E-15
   1.0000000000000000E-004
  CAR 
 NiAl                                    
     24      1     16
 
  0.1262379E-14  0.1262379E-14  0.1262379E-14  0.1000000E+01
    1      -35.744816   1.000000
    2      -31.240314   1.000000
    3      -20.519952   1.000000
    4      -20.486168   1.000000
    5      -15.857126   1.000000
    6      -13.641607   1.000000
    7      -13.243971   1.000000
    8      -13.235853   1.000000
    9      -12.961221   1.000000
   10       -8.042086   1.000000
   11       -7.330725   1.000000
   12       -5.163110   0.515291
   13       -5.160399   0.484709
   14       -4.584944   0.000000
   15       -0.226979   0.000000
   16        0.383772   0.000000
