/store/Terry_project/NiAlO_EDIP_fitting_DFT/DATA/O4-1/O4_1_iter_last_no_ox_lmp.data (written by ASE) 

0 	 atoms 
0  atom types
0.0                    14.5  xlo xhi
0.0                    14.5  ylo yhi
0.0                    14.5  zlo zhi


Atoms 

