 vasp.6.2.1 16May21 (build Jun 16 2021 03:23:30) complex                         
 executed on             LinuxPGI date 2022.04.23  22:18:14
 running on    1 total cores
 distrk:  each k-point on    1 cores,    1 groups
 distr:  one band on NCORE=   1 cores,    1 groups


--------------------------------------------------------------------------------------------------------


 INCAR:
   SYSTEM = NiAl
   ISTART = 0
   EDIFF = 1E-7
   NELMIN = 6
   IVDW = 12
   LWAVE = .FALSE.
   LCHARG = .FALSE.
   LREAL = Auto
   NCORE = 1
   LPLANE = .TRUE.
   ENCUT = 360.00 eV
   ISMEAR = 0
   SIGMA = 0.05

 POTCAR:    PAW O_GW 19Mar2012                    
 POTCAR:    PAW O_GW 19Mar2012                    
   VRHFIN =O: s2p4                                                                                  
   LEXCH  = PE                                                                                      
   EATOM  =   432.3788 eV,   31.7789 Ry                                                             
                                                                                                    
   TITEL  = PAW O_GW 19Mar2012                                                                      
   LULTRA =        F    use ultrasoft PP ?                                                          
   IUNSCR =        1    unscreen: 0-lin 1-nonlin 2-no                                               
   RPACOR =    0.800    partial core radius                                                         
   POMASS =   16.000; ZVAL   =    6.000    mass and valenz                                          
   RCORE  =    1.600    outmost cutoff radius                                                       
   RWIGS  =    1.600; RWIGS  =    0.847    wigner-seitz radius (au A)                               
   ENMAX  =  434.431; ENMIN  =  325.824 eV                                                          
   ICORE  =        3    local potential                                                             
   LCOR   =        T    correct aug charges                                                         
   LPAW   =        T    paw PP                                                                      
   EAUG   = 1139.609                                                                                
   DEXC   =    0.000                                                                                
   RMAX   =    1.629    core radius for proj-oper                                                   
   RAUG   =    1.300    factor for augmentation sphere                                              
   RDEP   =    1.652    radius for radial grids                                                     
   RDEPT  =    1.200    core radius for aug-charge                                                  
                                                                                                    
   Atomic configuration                                                                             
    5 entries                                                                                       
     n  l   j            E        occ.                                                              
     1  0  0.50      -514.6923   2.0000                                                             
     2  0  0.50       -23.9615   2.0000                                                             
     2  1  0.50        -9.0305   4.0000                                                             
     3  2  1.50        -9.5241   0.0000                                                             
     4  3  2.50        -9.5241   0.0000                                                             
   Description                                                                                      
     l       E           TYP  RCUT    TYP  RCUT                                                     
     0    -23.9615316     23  1.150                                                                 
     0    -25.3221142     23  1.150                                                                 
     0    244.9048680     23  1.300                                                                 
     1     -9.0304908     23  1.500                                                                 
     1     -6.9258396     23  1.500                                                                 
     1    122.4524340     23  1.500                                                                 
     2     13.6058260     23  1.500                                                                 
     2    190.4815640     23  1.600                                                                 
     3     54.4233040     23  1.400                                                                 
  local pseudopotential read in
  partial core-charges read in
  partial kinetic energy density read in
  kinetic energy density of atom read in
  atomic valenz-charges read in
  non local Contribution for L=            0  read in
    real space projection operators read in
  non local Contribution for L=            0  read in
    real space projection operators read in
  non local Contribution for L=            0  read in
    real space projection operators read in
  non local Contribution for L=            1  read in
    real space projection operators read in
  non local Contribution for L=            1  read in
    real space projection operators read in
  non local Contribution for L=            1  read in
    real space projection operators read in
  non local Contribution for L=            2  read in
    real space projection operators read in
  non local Contribution for L=            2  read in
    real space projection operators read in
    PAW grid and wavefunctions read in
 
   number of l-projection  operators is LMAX  =            8
   number of lm-projection operators is LMMAX =           22
 
 -----------------------------------------------------------------------------
|                                                                             |
|               ----> ADVICE to this user running VASP <----                  |
|                                                                             |
|     You have a (more or less) 'small supercell' and for smaller cells       |
|     it is recommended to use the reciprocal-space projection scheme!        |
|     The real-space optimization is not efficient for small cells and it     |
|     is also less accurate ...                                               |
|     Therefore, set LREAL=.FALSE. in the INCAR file.                         |
|                                                                             |
 -----------------------------------------------------------------------------

 Optimization of the real space projectors (new method)

 maximal supplied QI-value         = 23.62
 optimisation between [QCUT,QGAM] = [  9.68, 19.37] = [ 26.27,105.06] Ry 
 Optimized for a Real-space Cutoff    2.14 Angstroem

   l    n(q)    QCUT    max X(q) W(low)/X(q) W(high)/X(q)  e(spline) 
   0     13     9.685   116.464    0.15E-03    0.15E-03    0.47E-05
   0     13     9.685   116.329    0.15E-03    0.15E-03    0.46E-05
   0     13     9.685     0.942    0.20E-04    0.50E-04    0.17E-05
   1     12     9.685    29.046    0.36E-03    0.11E-02    0.25E-04
   1     12     9.685    24.247    0.38E-03    0.11E-02    0.26E-04
   1     12     9.685     2.381    0.13E-03    0.38E-03    0.78E-05
   2     12     9.685     2.237    0.60E-05    0.28E-04    0.14E-05
   2     12     9.685     1.850    0.17E-04    0.70E-04    0.25E-05
  PAW O_GW 19Mar2012                    :
 energy of atom  1       EATOM= -432.3788
 kinetic energy error for atom=    0.3913 (will be added to EATOM!!)
 
 
 POSCAR: New structure
  positions in cartesian coordinates
  No initial velocities read in
 exchange correlation table for  LEXCH =        8
   RHO(1)=    0.500       N(1)  =     2000
   RHO(2)=  100.500       N(2)  =     4000

 VTST: version 4.1, (05/19/21)

 CHAIN: initializing optimizer
 
 OPT: Using VASP Dynamics algorithm
 CHAIN: Read ICHAIN             0
 
 POSCAR: New structure
  positions in cartesian coordinates
  No initial velocities read in
 


--------------------------------------------------------------------------------------------------------


 ion  position               nearest neighbor table
   1  0.000  0.000  0.000-   2 1.20   3 1.69   4 1.69
   2  0.083  0.000  0.000-   1 1.20   3 1.76   4 1.76
   3  0.034  0.959  0.103-   4 1.20   1 1.69   2 1.76
   4  0.034  0.041  0.103-   3 1.20   1 1.69   2 1.76
 
  LATTYP: Found a simple cubic cell.
 ALAT       =    14.5000000000
  
  Lattice vectors:
  
 A1 = (  14.5000000000,   0.0000000000,   0.0000000000)
 A2 = (   0.0000000000,  14.5000000000,   0.0000000000)
 A3 = (   0.0000000000,   0.0000000000,  14.5000000000)


Analysis of symmetry for initial positions (statically):
=====================================================================
 Subroutine PRICEL returns:
 Original cell was already a primitive cell.
 

 Routine SETGRP: Setting up the symmetry group for a 
 simple cubic supercell.


 Subroutine GETGRP returns: Found  2 space group operations
 (whereof  2 operations were pure point group operations)
 out of a pool of 48 trial point group operations.


The static configuration has the point symmetry C_1h.


Analysis of symmetry for dynamics (positions and initial velocities):
=====================================================================
 Subroutine PRICEL returns:
 Original cell was already a primitive cell.
 

 Routine SETGRP: Setting up the symmetry group for a 
 simple cubic supercell.


 Subroutine GETGRP returns: Found  2 space group operations
 (whereof  2 operations were pure point group operations)
 out of a pool of 48 trial point group operations.


The dynamic configuration has the point symmetry C_1h.


 Subroutine INISYM returns: Found  2 space group operations
 (whereof  2 operations are pure point group operations),
 and found     1 'primitive' translations


----------------------------------------------------------------------------------------

                                     Primitive cell                                     

  volume of cell :    3048.6250

  direct lattice vectors                    reciprocal lattice vectors
    14.500000000  0.000000000  0.000000000     0.068965517  0.000000000  0.000000000
     0.000000000 14.500000000  0.000000000     0.000000000  0.068965517  0.000000000
     0.000000000  0.000000000 14.500000000     0.000000000  0.000000000  0.068965517

  length of vectors
    14.500000000 14.500000000 14.500000000     0.068965517  0.068965517  0.068965517

  position of ions in fractional coordinates (direct lattice)
     0.000000000  0.000000000  0.000000000
     0.082758621  0.000000000  0.000000000
     0.034482759  0.958620690  0.103448276
     0.034482759  0.041379310  0.103448276

  ion indices of the primitive-cell ions
   primitive index   ion index
                 1           1
                 2           2
                 3           3
                 4           4

----------------------------------------------------------------------------------------

 
 
 KPOINTS: Automatic generation                    

Automatic generation of k-mesh.
 Grid dimensions read from file:
 generate k-points for:    1    1    1

 Generating k-lattice:

  Cartesian coordinates                     Fractional coordinates (reciprocal lattice)
     0.068965517  0.000000000  0.000000000     1.000000000  0.000000000  0.000000000
     0.000000000  0.068965517  0.000000000     0.000000000  1.000000000  0.000000000
     0.000000000  0.000000000  0.068965517     0.000000000  0.000000000  1.000000000

  Length of vectors
     0.068965517  0.068965517  0.068965517

  Shift w.r.t. Gamma in fractional coordinates (k-lattice)
     0.000000000  0.000000000  0.000000000

 
 Subroutine IBZKPT returns following result:
 ===========================================
 
 Found      1 irreducible k-points:
 
 Following reciprocal coordinates:
            Coordinates               Weight
  0.000000  0.000000  0.000000      1.000000
 
 Following cartesian coordinates:
            Coordinates               Weight
  0.000000  0.000000  0.000000      1.000000
 


--------------------------------------------------------------------------------------------------------




 Dimension of arrays:
   k-points           NKPTS =      1   k-points in BZ     NKDIM =      1   number of bands    NBANDS=     16
   number of dos      NEDOS =    301   number of ions     NIONS =      4
   non local maximal  LDIM  =      8   non local SUM 2l+1 LMDIM =     22
   total plane-waves  NPLWV = 343000
   max r-space proj   IRMAX =   4649   max aug-charges    IRDMAX=   1404
   dimension x,y,z NGX =    70 NGY =   70 NGZ =   70
   dimension x,y,z NGXF=   140 NGYF=  140 NGZF=  140
   support grid    NGXF=   140 NGYF=  140 NGZF=  140
   ions per type =               4
   NGX,Y,Z   is equivalent  to a cutoff of   8.03,  8.03,  8.03 a.u.
   NGXF,Y,Z  is equivalent  to a cutoff of  16.05, 16.05, 16.05 a.u.

 SYSTEM =  NiAl                                    
 POSCAR =  New structure                           

 Startparameter for this run:
   NWRITE =      2    write-flag & timer
   PREC   = normal    normal or accurate (medium, high low for compatibility)
   ISTART =      0    job   : 0-new  1-cont  2-samecut
   ICHARG =      2    charge: 1-file 2-atom 10-const
   ISPIN  =      1    spin polarized calculation?
   LNONCOLLINEAR =      F non collinear calculations
   LSORBIT =      F    spin-orbit coupling
   INIWAV =      1    electr: 0-lowe 1-rand  2-diag
   LASPH  =      F    aspherical Exc in radial PAW
 Electronic Relaxation 1
   ENCUT  =  360.0 eV  26.46 Ry    5.14 a.u.  22.43 22.43 22.43*2*pi/ulx,y,z
   ENINI  =  360.0     initial cutoff
   ENAUG  = 1139.6 eV  augmentation charge cutoff
   NELM   =     60;   NELMIN=  6; NELMDL= -5     # of ELM steps 
   EDIFF  = 0.1E-06   stopping-criterion for ELM
   LREAL  =      T    real-space projection
   NLSPLINE    = F    spline interpolate recip. space projectors
   LCOMPAT=      F    compatible to vasp.4.4
   GGA_COMPAT  = T    GGA compatible to vasp.4.4-vasp.4.6
   LMAXPAW     = -100 max onsite density
   LMAXMIX     =    2 max onsite mixed and CHGCAR
   VOSKOWN=      0    Vosko Wilk Nusair interpolation
   ROPT   =   -0.00050
 Ionic relaxation
   EDIFFG = 0.1E-05   stopping-criterion for IOM
   NSW    =      0    number of steps for IOM
   NBLOCK =      1;   KBLOCK =      1    inner block; outer block 
   IBRION =     -1    ionic relax: 0-MD 1-quasi-New 2-CG
   NFREE  =      0    steps in history (QN), initial steepest desc. (CG)
   ISIF   =      2    stress and relaxation
   IWAVPR =     10    prediction:  0-non 1-charg 2-wave 3-comb
   ISYM   =      2    0-nonsym 1-usesym 2-fastsym
   LCORR  =      T    Harris-Foulkes like correction to forces

   POTIM  = 0.5000    time-step for ionic-motion
   TEIN   =    0.0    initial temperature
   TEBEG  =    0.0;   TEEND  =   0.0 temperature during run
   SMASS  =  -3.00    Nose mass-parameter (am)
   estimated Nose-frequenzy (Omega)   =  0.10E-29 period in steps = 0.13E+47 mass=  -0.480E-26a.u.
   SCALEE = 1.0000    scale energy and forces
   NPACO  =    256;   APACO  = 16.0  distance and # of slots for P.C.
   PSTRESS=    0.0 pullay stress

  Mass of Ions in am
   POMASS =  16.00
  Ionic Valenz
   ZVAL   =   6.00
  Atomic Wigner-Seitz radii
   RWIGS  =  -1.00
  virtual crystal weights 
   VCA    =   1.00
   NELECT =      24.0000    total number of electrons
   NUPDOWN=      -1.0000    fix difference up-down

 DOS related values:
   EMIN   =  10.00;   EMAX   =-10.00  energy-range for DOS
   EFERMI =   0.00
   ISMEAR =     0;   SIGMA  =   0.05  broadening in eV -4-tet -1-fermi 0-gaus

 Electronic relaxation 2 (details)
   IALGO  =     38    algorithm
   LDIAG  =      T    sub-space diagonalisation (order eigenvalues)
   LSUBROT=      F    optimize rotation matrix (better conditioning)
   TURBO    =      0    0=normal 1=particle mesh
   IRESTART =      0    0=no restart 2=restart with 2 vectors
   NREBOOT  =      0    no. of reboots
   NMIN     =      0    reboot dimension
   EREF     =   0.00    reference energy to select bands
   IMIX   =      4    mixing-type and parameters
     AMIX     =   0.40;   BMIX     =  1.00
     AMIX_MAG =   1.60;   BMIX_MAG =  1.00
     AMIN     =   0.10
     WC   =   100.;   INIMIX=   1;  MIXPRE=   1;  MAXMIX= -45

 Intra band minimization:
   WEIMIN = 0.0000     energy-eigenvalue tresh-hold
   EBREAK =  0.16E-08  absolut break condition
   DEPER  =   0.30     relativ break condition  

   TIME   =   0.40     timestep for ELM

  volume/ion in A,a.u.               =     762.16      5143.28
  Fermi-wavevector in a.u.,A,eV,Ry     =   0.325670  0.615426  1.443043  0.106061
  Thomas-Fermi vector in A             =   1.216865
 
 Write flags
   LWAVE        =      F    write WAVECAR
   LDOWNSAMPLE  =      F    k-point downsampling of WAVECAR
   LCHARG       =      F    write CHGCAR
   LVTOT        =      F    write LOCPOT, total local potential
   LVHAR        =      F    write LOCPOT, Hartree potential only
   LELF         =      F    write electronic localiz. function (ELF)
   LORBIT       =      0    0 simple, 1 ext, 2 COOP (PROOUT), +10 PAW based schemes


 Dipole corrections
   LMONO  =      F    monopole corrections only (constant potential shift)
   LDIPOL =      F    correct potential (dipole corrections)
   IDIPOL =      0    1-x, 2-y, 3-z, 4-all directions 
   EPSILON=  1.0000000 bulk dielectric constant

 Exchange correlation treatment:
   GGA     =    --    GGA type
   LEXCH   =     8    internal setting for exchange type
   VOSKOWN=      0    Vosko Wilk Nusair interpolation
   LHFCALC =     F    Hartree Fock is set to
   LHFONE  =     F    Hartree Fock one center treatment
   AEXX    =    0.0000 exact exchange contribution

 Linear response parameters
   LEPSILON=     F    determine dielectric tensor
   LRPA    =     F    only Hartree local field effects (RPA)
   LNABLA  =     F    use nabla operator in PAW spheres
   LVEL    =     F    velocity operator in full k-point grid
   LINTERFAST=   F  fast interpolation
   KINTER  =     0    interpolate to denser k-point grid
   CSHIFT  =0.1000    complex shift for real part using Kramers Kronig
   OMEGAMAX=  -1.0    maximum frequency
   DEG_THRESHOLD= 0.2000000E-02 threshold for treating states as degnerate
   RTIME   =   -0.100 relaxation time in fs
  (WPLASMAI=    0.000 imaginary part of plasma frequency in eV, 0.658/RTIME)
   DFIELD  = 0.0000000 0.0000000 0.0000000 field for delta impulse in time
 
 Orbital magnetization related:
   ORBITALMAG=     F  switch on orbital magnetization
   LCHIMAG   =     F  perturbation theory with respect to B field
   DQ        =  0.001000  dq finite difference perturbation B field
   LLRAUG    =     F  two centre corrections for induced B field



--------------------------------------------------------------------------------------------------------


 Static calculation
 charge density and potential will be updated during run
 non-spin polarized calculation
 Variant of blocked Davidson
 Davidson routine will perform the subspace rotation
 perform sub-space diagonalisation
    after iterative eigenvector-optimisation
 modified Broyden-mixing scheme, WC =      100.0
 initial mixing is a Kerker type mixing with AMIX =  0.4000 and BMIX =      1.0000
 Hartree-type preconditioning will be used
 using additional bands             4
 real space projection scheme for non local part
 use partial core corrections
 calculate Harris-corrections to forces 
   (improved forces if not selfconsistent)
 use gradient corrections 
 use of overlap-Matrix (Vanderbilt PP)
 Gauss-broadening in eV      SIGMA  =   0.05


--------------------------------------------------------------------------------------------------------


  energy-cutoff  :      360.00
  volume of cell :     3048.63
      direct lattice vectors                 reciprocal lattice vectors
    14.500000000  0.000000000  0.000000000     0.068965517  0.000000000  0.000000000
     0.000000000 14.500000000  0.000000000     0.000000000  0.068965517  0.000000000
     0.000000000  0.000000000 14.500000000     0.000000000  0.000000000  0.068965517

  length of vectors
    14.500000000 14.500000000 14.500000000     0.068965517  0.068965517  0.068965517


 
 k-points in units of 2pi/SCALE and weight: Automatic generation                    
   0.00000000  0.00000000  0.00000000       1.000
 
 k-points in reciprocal lattice and weights: Automatic generation                    
   0.00000000  0.00000000  0.00000000       1.000
 
 position of ions in fractional coordinates (direct lattice) 
   0.00000000  0.00000000  0.00000000
   0.08275862  0.00000000  0.00000000
   0.03448276  0.95862069  0.10344828
   0.03448276  0.04137931  0.10344828
 
 position of ions in cartesian coordinates  (Angst):
   0.00000000  0.00000000  0.00000000
   1.20000000  0.00000000  0.00000000
   0.50000000 13.90000000  1.50000000
   0.50000000  0.60000000  1.50000000
 


--------------------------------------------------------------------------------------------------------


 k-point   1 :   0.0000 0.0000 0.0000  plane waves:   47257

 maximum and minimum number of plane-waves per node :     47257    47257

 maximum number of plane-waves:     47257
 maximum index in each direction: 
   IXMAX=   22   IYMAX=   22   IZMAX=   22
   IXMIN=  -22   IYMIN=  -22   IZMIN=  -22


 serial   3D FFT for wavefunctions
 parallel 3D FFT for charge:
    minimum data exchange during FFTs selected (reduces bandwidth)


 total amount of memory used by VASP MPI-rank0   287442. kBytes
=======================================================================

   base      :      30000. kBytes
   nonlr-proj:       3766. kBytes
   fftplans  :      94700. kBytes
   grid      :     146764. kBytes
   one-center:         92. kBytes
   wavefun   :      12120. kBytes
 
     INWAV:  cpu time    0.0001: real time    0.0002
 Broyden mixing: mesh for mixing (old mesh)
   NGX = 45   NGY = 45   NGZ = 45
  (NGX  =140   NGY  =140   NGZ  =140)
  gives a total of  91125 points

 initial charge density was supplied:
 charge density of overlapping atoms calculated
 number of electron      24.0000000 magnetization 
 keeping initial charge density in first step


--------------------------------------------------------------------------------------------------------


 Maximum index for non-local projection operator          4469
 Maximum index for augmentation-charges          1189 (set IRDMAX)


--------------------------------------------------------------------------------------------------------


 First call to EWALD:  gamma=   0.122
 Maximum number of real-space cells 3x 3x 3
 Maximum number of reciprocal cells 3x 3x 3

    FEWALD:  cpu time    0.0005: real time    0.0005


--------------------------------------- Iteration      1(   1)  ---------------------------------------


    POTLOK:  cpu time    0.0457: real time    0.0657
    SETDIJ:  cpu time    0.0055: real time    0.0055
     EDDAV:  cpu time    0.0751: real time    0.0839
       DOS:  cpu time    0.0001: real time    0.0001
    --------------------------------------------
      LOOP:  cpu time    0.1264: real time    0.1552

 eigenvalue-minimisations  :    48
 total energy-change (2. order) : 0.2065163E+03  (-0.4605236E+03)
 number of electron      24.0000000 magnetization 
 augmentation part       24.0000000 magnetization 

 Free energy of the ion-electron system (eV)
  ---------------------------------------------------
  alpha Z        PSCENC =         0.35861207
  Ewald energy   TEWEN  =      1259.69217248
  -Hartree energ DENC   =     -2701.72518511
  -exchange      EXHF   =         0.00000000
  -V(xc)+E(xc)   XCENC  =       104.54783169
  PAW double counting   =      1396.60603497    -1393.39258355
  entropy T*S    EENTRO =        -0.00000000
  eigenvalues    EBANDS =      -187.52065970
  atomic energy  EATOM  =      1727.95004229
  Solvation  Ediel_sol  =         0.00000000
  ---------------------------------------------------
  free energy    TOTEN  =       206.51626514 eV

  energy without entropy =      206.51626514  energy(sigma->0) =      206.51626514


--------------------------------------------------------------------------------------------------------




--------------------------------------- Iteration      1(   2)  ---------------------------------------


     EDDAV:  cpu time    0.0596: real time    0.0597
       DOS:  cpu time    0.0001: real time    0.0001
    --------------------------------------------
      LOOP:  cpu time    0.0597: real time    0.0598

 eigenvalue-minimisations  :    64
 total energy-change (2. order) :-0.1348683E+03  (-0.1343024E+03)
 number of electron      24.0000000 magnetization 
 augmentation part       24.0000000 magnetization 

 Free energy of the ion-electron system (eV)
  ---------------------------------------------------
  alpha Z        PSCENC =         0.35861207
  Ewald energy   TEWEN  =      1259.69217248
  -Hartree energ DENC   =     -2701.72518511
  -exchange      EXHF   =         0.00000000
  -V(xc)+E(xc)   XCENC  =       104.54783169
  PAW double counting   =      1396.60603497    -1393.39258355
  entropy T*S    EENTRO =        -0.04357051
  eigenvalues    EBANDS =      -322.34538484
  atomic energy  EATOM  =      1727.95004229
  Solvation  Ediel_sol  =         0.00000000
  ---------------------------------------------------
  free energy    TOTEN  =        71.64796949 eV

  energy without entropy =       71.69154000  energy(sigma->0) =       71.66975474


--------------------------------------------------------------------------------------------------------




--------------------------------------- Iteration      1(   3)  ---------------------------------------


     EDDAV:  cpu time    0.0475: real time    0.0475
       DOS:  cpu time    0.0001: real time    0.0001
    --------------------------------------------
      LOOP:  cpu time    0.0476: real time    0.0476

 eigenvalue-minimisations  :    48
 total energy-change (2. order) :-0.7005521E+02  (-0.6942614E+02)
 number of electron      24.0000000 magnetization 
 augmentation part       24.0000000 magnetization 

 Free energy of the ion-electron system (eV)
  ---------------------------------------------------
  alpha Z        PSCENC =         0.35861207
  Ewald energy   TEWEN  =      1259.69217248
  -Hartree energ DENC   =     -2701.72518511
  -exchange      EXHF   =         0.00000000
  -V(xc)+E(xc)   XCENC  =       104.54783169
  PAW double counting   =      1396.60603497    -1393.39258355
  entropy T*S    EENTRO =        -0.00000000
  eigenvalues    EBANDS =      -392.44416811
  atomic energy  EATOM  =      1727.95004229
  Solvation  Ediel_sol  =         0.00000000
  ---------------------------------------------------
  free energy    TOTEN  =         1.59275673 eV

  energy without entropy =        1.59275673  energy(sigma->0) =        1.59275673


--------------------------------------------------------------------------------------------------------




--------------------------------------- Iteration      1(   4)  ---------------------------------------


     EDDAV:  cpu time    0.0378: real time    0.0378
       DOS:  cpu time    0.0001: real time    0.0001
    --------------------------------------------
      LOOP:  cpu time    0.0378: real time    0.0378

 eigenvalue-minimisations  :    40
 total energy-change (2. order) :-0.1386342E+02  (-0.1386028E+02)
 number of electron      24.0000000 magnetization 
 augmentation part       24.0000000 magnetization 

 Free energy of the ion-electron system (eV)
  ---------------------------------------------------
  alpha Z        PSCENC =         0.35861207
  Ewald energy   TEWEN  =      1259.69217248
  -Hartree energ DENC   =     -2701.72518511
  -exchange      EXHF   =         0.00000000
  -V(xc)+E(xc)   XCENC  =       104.54783169
  PAW double counting   =      1396.60603497    -1393.39258355
  entropy T*S    EENTRO =        -0.01201783
  eigenvalues    EBANDS =      -406.29557221
  atomic energy  EATOM  =      1727.95004229
  Solvation  Ediel_sol  =         0.00000000
  ---------------------------------------------------
  free energy    TOTEN  =       -12.27066520 eV

  energy without entropy =      -12.25864737  energy(sigma->0) =      -12.26465629


--------------------------------------------------------------------------------------------------------




--------------------------------------- Iteration      1(   5)  ---------------------------------------


     EDDAV:  cpu time    0.0437: real time    0.0437
       DOS:  cpu time    0.0001: real time    0.0001
    CHARGE:  cpu time    0.0774: real time    0.0875
    MIXING:  cpu time    0.0393: real time    0.0393
    --------------------------------------------
      LOOP:  cpu time    0.1605: real time    0.1705

 eigenvalue-minimisations  :    48
 total energy-change (2. order) :-0.2353879E+00  (-0.2318662E+00)
 number of electron      24.0000009 magnetization 
 augmentation part        2.0487142 magnetization 

 Broyden mixing:
  rms(total) = 0.76937E+01    rms(broyden)= 0.76911E+01
  rms(prec ) = 0.77029E+01
  weight for this iteration     100.00

 Free energy of the ion-electron system (eV)
  ---------------------------------------------------
  alpha Z        PSCENC =         0.35861207
  Ewald energy   TEWEN  =      1259.69217248
  -Hartree energ DENC   =     -2701.72518511
  -exchange      EXHF   =         0.00000000
  -V(xc)+E(xc)   XCENC  =       104.54783169
  PAW double counting   =      1396.60603497    -1393.39258355
  entropy T*S    EENTRO =        -0.02999092
  eigenvalues    EBANDS =      -406.51298700
  atomic energy  EATOM  =      1727.95004229
  Solvation  Ediel_sol  =         0.00000000
  ---------------------------------------------------
  free energy    TOTEN  =       -12.50605309 eV

  energy without entropy =      -12.47606217  energy(sigma->0) =      -12.49105763


--------------------------------------------------------------------------------------------------------




--------------------------------------- Iteration      1(   6)  ---------------------------------------


    POTLOK:  cpu time    0.0343: real time    0.0343
    SETDIJ:  cpu time    0.0057: real time    0.0057
     EDDAV:  cpu time    0.0420: real time    0.0420
       DOS:  cpu time    0.0001: real time    0.0001
    CHARGE:  cpu time    0.0734: real time    0.0734
    MIXING:  cpu time    0.0415: real time    0.0427
    --------------------------------------------
      LOOP:  cpu time    0.1970: real time    0.1982

 eigenvalue-minimisations  :    48
 total energy-change (2. order) :-0.2595909E+01  (-0.4076824E+01)
 number of electron      23.9999989 magnetization 
 augmentation part        2.0408751 magnetization 

 Broyden mixing:
  rms(total) = 0.51006E+01    rms(broyden)= 0.50937E+01
  rms(prec ) = 0.51920E+01
  weight for this iteration     100.00

 eigenvalues of (default mixing * dielectric matrix)
  average eigenvalue GAMMA=   1.8087
  1.8087

 Free energy of the ion-electron system (eV)
  ---------------------------------------------------
  alpha Z        PSCENC =         0.35861207
  Ewald energy   TEWEN  =      1259.69217248
  -Hartree energ DENC   =     -2707.57045831
  -exchange      EXHF   =         0.00000000
  -V(xc)+E(xc)   XCENC  =       105.28545224
  PAW double counting   =      2733.23311626    -2730.20529993
  entropy T*S    EENTRO =        -0.00000000
  eigenvalues    EBANDS =      -403.84559937
  atomic energy  EATOM  =      1727.95004229
  Solvation  Ediel_sol  =         0.00000000
  ---------------------------------------------------
  free energy    TOTEN  =       -15.10196226 eV

  energy without entropy =      -15.10196226  energy(sigma->0) =      -15.10196226


--------------------------------------------------------------------------------------------------------




--------------------------------------- Iteration      1(   7)  ---------------------------------------


    POTLOK:  cpu time    0.0343: real time    0.0343
    SETDIJ:  cpu time    0.0056: real time    0.0056
     EDDAV:  cpu time    0.0429: real time    0.0430
       DOS:  cpu time    0.0001: real time    0.0001
    CHARGE:  cpu time    0.0738: real time    0.0738
    MIXING:  cpu time    0.0425: real time    0.0432
    --------------------------------------------
      LOOP:  cpu time    0.1992: real time    0.1999

 eigenvalue-minimisations  :    48
 total energy-change (2. order) :-0.1952777E+02  (-0.3326318E+02)
 number of electron      24.0000000 magnetization 
 augmentation part        2.1239034 magnetization 

 Broyden mixing:
  rms(total) = 0.39364E+01    rms(broyden)= 0.39209E+01
  rms(prec ) = 0.42995E+01
  weight for this iteration     100.00

 eigenvalues of (default mixing * dielectric matrix)
  average eigenvalue GAMMA=   1.5010
  2.5636  0.4383

 Free energy of the ion-electron system (eV)
  ---------------------------------------------------
  alpha Z        PSCENC =         0.35861207
  Ewald energy   TEWEN  =      1259.69217248
  -Hartree energ DENC   =     -2719.27163483
  -exchange      EXHF   =         0.00000000
  -V(xc)+E(xc)   XCENC  =       106.05241793
  PAW double counting   =      4702.38079108    -4699.55083341
  entropy T*S    EENTRO =        -0.00000000
  eigenvalues    EBANDS =      -412.24129944
  atomic energy  EATOM  =      1727.95004229
  Solvation  Ediel_sol  =         0.00000000
  ---------------------------------------------------
  free energy    TOTEN  =       -34.62973183 eV

  energy without entropy =      -34.62973183  energy(sigma->0) =      -34.62973183


--------------------------------------------------------------------------------------------------------




--------------------------------------- Iteration      1(   8)  ---------------------------------------


    POTLOK:  cpu time    0.0344: real time    0.0344
    SETDIJ:  cpu time    0.0056: real time    0.0056
     EDDAV:  cpu time    0.0433: real time    0.0433
       DOS:  cpu time    0.0001: real time    0.0001
    CHARGE:  cpu time    0.0733: real time    0.0733
    MIXING:  cpu time    0.0440: real time    0.0447
    --------------------------------------------
      LOOP:  cpu time    0.2006: real time    0.2013

 eigenvalue-minimisations  :    48
 total energy-change (2. order) : 0.1374656E+02  (-0.9622212E+00)
 number of electron      24.0000003 magnetization 
 augmentation part        2.0477041 magnetization 

 Broyden mixing:
  rms(total) = 0.22924E+01    rms(broyden)= 0.22917E+01
  rms(prec ) = 0.26824E+01
  weight for this iteration     100.00

 eigenvalues of (default mixing * dielectric matrix)
  average eigenvalue GAMMA=   1.2973
  2.5999  0.6461  0.6461

 Free energy of the ion-electron system (eV)
  ---------------------------------------------------
  alpha Z        PSCENC =         0.35861207
  Ewald energy   TEWEN  =      1259.69217248
  -Hartree energ DENC   =     -2723.98411000
  -exchange      EXHF   =         0.00000000
  -V(xc)+E(xc)   XCENC  =       106.75375051
  PAW double counting   =      6267.79164372    -6265.12118612
  entropy T*S    EENTRO =        -0.00000000
  eigenvalues    EBANDS =      -394.32409615
  atomic energy  EATOM  =      1727.95004229
  Solvation  Ediel_sol  =         0.00000000
  ---------------------------------------------------
  free energy    TOTEN  =       -20.88317120 eV

  energy without entropy =      -20.88317120  energy(sigma->0) =      -20.88317120


--------------------------------------------------------------------------------------------------------




--------------------------------------- Iteration      1(   9)  ---------------------------------------


    POTLOK:  cpu time    0.0344: real time    0.0344
    SETDIJ:  cpu time    0.0057: real time    0.0057
     EDDAV:  cpu time    0.0457: real time    0.0457
       DOS:  cpu time    0.0001: real time    0.0001
    CHARGE:  cpu time    0.0750: real time    0.0750
    MIXING:  cpu time    0.0452: real time    0.0452
    --------------------------------------------
      LOOP:  cpu time    0.2061: real time    0.2061

 eigenvalue-minimisations  :    48
 total energy-change (2. order) : 0.9220811E+01  (-0.2417529E+01)
 number of electron      24.0000012 magnetization 
 augmentation part        1.9590329 magnetization 

 Broyden mixing:
  rms(total) = 0.10170E+01    rms(broyden)= 0.10031E+01
  rms(prec ) = 0.11189E+01
  weight for this iteration     100.00

 eigenvalues of (default mixing * dielectric matrix)
  average eigenvalue GAMMA=   1.0926
  2.5636  0.4969  0.6549  0.6549

 Free energy of the ion-electron system (eV)
  ---------------------------------------------------
  alpha Z        PSCENC =         0.35861207
  Ewald energy   TEWEN  =      1259.69217248
  -Hartree energ DENC   =     -2720.22886447
  -exchange      EXHF   =         0.00000000
  -V(xc)+E(xc)   XCENC  =       106.52955631
  PAW double counting   =      6298.90877746    -6296.24826894
  entropy T*S    EENTRO =        -0.00000891
  eigenvalues    EBANDS =      -388.62437856
  atomic energy  EATOM  =      1727.95004229
  Solvation  Ediel_sol  =         0.00000000
  ---------------------------------------------------
  free energy    TOTEN  =       -11.66236027 eV

  energy without entropy =      -11.66235136  energy(sigma->0) =      -11.66235581


--------------------------------------------------------------------------------------------------------




--------------------------------------- Iteration      1(  10)  ---------------------------------------


    POTLOK:  cpu time    0.0344: real time    0.0344
    SETDIJ:  cpu time    0.0056: real time    0.0056
     EDDAV:  cpu time    0.0318: real time    0.0318
       DOS:  cpu time    0.0001: real time    0.0001
    CHARGE:  cpu time    0.0739: real time    0.0739
    MIXING:  cpu time    0.0471: real time    0.0471
    --------------------------------------------
      LOOP:  cpu time    0.1929: real time    0.1929

 eigenvalue-minimisations  :    32
 total energy-change (2. order) :-0.4390829E+00  (-0.1411529E+00)
 number of electron      24.0000010 magnetization 
 augmentation part        1.9602899 magnetization 

 Broyden mixing:
  rms(total) = 0.10130E+01    rms(broyden)= 0.10130E+01
  rms(prec ) = 0.11851E+01
  weight for this iteration     100.00

 eigenvalues of (default mixing * dielectric matrix)
  average eigenvalue GAMMA=   1.0117
  2.5868  0.7507  0.7507  0.4852  0.4852

 Free energy of the ion-electron system (eV)
  ---------------------------------------------------
  alpha Z        PSCENC =         0.35861207
  Ewald energy   TEWEN  =      1259.69217248
  -Hartree energ DENC   =     -2718.45591546
  -exchange      EXHF   =         0.00000000
  -V(xc)+E(xc)   XCENC  =       106.37176628
  PAW double counting   =      6221.89735643    -6219.20980569
  entropy T*S    EENTRO =        -0.00000000
  eigenvalues    EBANDS =      -390.70567155
  atomic energy  EATOM  =      1727.95004229
  Solvation  Ediel_sol  =         0.00000000
  ---------------------------------------------------
  free energy    TOTEN  =       -12.10144314 eV

  energy without entropy =      -12.10144314  energy(sigma->0) =      -12.10144314


--------------------------------------------------------------------------------------------------------




--------------------------------------- Iteration      1(  11)  ---------------------------------------


    POTLOK:  cpu time    0.0353: real time    0.0353
    SETDIJ:  cpu time    0.0057: real time    0.0057
     EDDAV:  cpu time    0.0307: real time    0.0307
       DOS:  cpu time    0.0001: real time    0.0001
    CHARGE:  cpu time    0.0803: real time    0.0803
    MIXING:  cpu time    0.0490: real time    0.0490
    --------------------------------------------
      LOOP:  cpu time    0.2010: real time    0.2010

 eigenvalue-minimisations  :    32
 total energy-change (2. order) : 0.3822939E+00  (-0.2453783E-01)
 number of electron      24.0000010 magnetization 
 augmentation part        1.9612968 magnetization 

 Broyden mixing:
  rms(total) = 0.88727E+00    rms(broyden)= 0.88705E+00
  rms(prec ) = 0.10271E+01
  weight for this iteration     100.00

 eigenvalues of (default mixing * dielectric matrix)
  average eigenvalue GAMMA=   1.0996
  2.6199  1.1418  1.1418  0.6073  0.6073  0.4797

 Free energy of the ion-electron system (eV)
  ---------------------------------------------------
  alpha Z        PSCENC =         0.35861207
  Ewald energy   TEWEN  =      1259.69217248
  -Hartree energ DENC   =     -2717.08232148
  -exchange      EXHF   =         0.00000000
  -V(xc)+E(xc)   XCENC  =       106.26165093
  PAW double counting   =      6217.01776235    -6214.30943038
  entropy T*S    EENTRO =        -0.00273514
  eigenvalues    EBANDS =      -391.60490235
  atomic energy  EATOM  =      1727.95004229
  Solvation  Ediel_sol  =         0.00000000
  ---------------------------------------------------
  free energy    TOTEN  =       -11.71914923 eV

  energy without entropy =      -11.71641409  energy(sigma->0) =      -11.71778166


--------------------------------------------------------------------------------------------------------




--------------------------------------- Iteration      1(  12)  ---------------------------------------


    POTLOK:  cpu time    0.0362: real time    0.0362
    SETDIJ:  cpu time    0.0058: real time    0.0058
     EDDAV:  cpu time    0.0363: real time    0.0363
       DOS:  cpu time    0.0001: real time    0.0001
    CHARGE:  cpu time    0.0801: real time    0.0801
    MIXING:  cpu time    0.0512: real time    0.0513
    --------------------------------------------
      LOOP:  cpu time    0.2097: real time    0.2097

 eigenvalue-minimisations  :    40
 total energy-change (2. order) :-0.4907606E+00  (-0.1132540E+01)
 number of electron      23.9999983 magnetization 
 augmentation part        1.9738938 magnetization 

 Broyden mixing:
  rms(total) = 0.11309E+01    rms(broyden)= 0.10796E+01
  rms(prec ) = 0.12142E+01
  weight for this iteration     100.00

 eigenvalues of (default mixing * dielectric matrix)
  average eigenvalue GAMMA=   0.9518
  2.5970  1.1093  1.1093  0.6021  0.6021  0.5327  0.1099

 Free energy of the ion-electron system (eV)
  ---------------------------------------------------
  alpha Z        PSCENC =         0.35861207
  Ewald energy   TEWEN  =      1259.69217248
  -Hartree energ DENC   =     -2714.60508196
  -exchange      EXHF   =         0.00000000
  -V(xc)+E(xc)   XCENC  =       106.06988901
  PAW double counting   =      6191.16102672    -6188.41583072
  entropy T*S    EENTRO =        -0.00000000
  eigenvalues    EBANDS =      -394.42073973
  atomic energy  EATOM  =      1727.95004229
  Solvation  Ediel_sol  =         0.00000000
  ---------------------------------------------------
  free energy    TOTEN  =       -12.20990983 eV

  energy without entropy =      -12.20990983  energy(sigma->0) =      -12.20990983


--------------------------------------------------------------------------------------------------------




--------------------------------------- Iteration      1(  13)  ---------------------------------------


    POTLOK:  cpu time    0.0361: real time    0.0361
    SETDIJ:  cpu time    0.0057: real time    0.0057
     EDDAV:  cpu time    0.0308: real time    0.0308
       DOS:  cpu time    0.0001: real time    0.0001
    CHARGE:  cpu time    0.0800: real time    0.0800
    MIXING:  cpu time    0.0662: real time    0.0662
    --------------------------------------------
      LOOP:  cpu time    0.2188: real time    0.2188

 eigenvalue-minimisations  :    32
 total energy-change (2. order) : 0.3434002E+00  (-0.1233340E-01)
 number of electron      23.9999983 magnetization 
 augmentation part        1.9742975 magnetization 

 Broyden mixing:
  rms(total) = 0.10212E+01    rms(broyden)= 0.10186E+01
  rms(prec ) = 0.11396E+01
  weight for this iteration     100.00

 eigenvalues of (default mixing * dielectric matrix)
  average eigenvalue GAMMA=   0.8835
  2.6061  1.1167  1.1167  0.5907  0.5907  0.5643  0.2604  0.2222

 Free energy of the ion-electron system (eV)
  ---------------------------------------------------
  alpha Z        PSCENC =         0.35861207
  Ewald energy   TEWEN  =      1259.69217248
  -Hartree energ DENC   =     -2714.44529341
  -exchange      EXHF   =         0.00000000
  -V(xc)+E(xc)   XCENC  =       106.12689384
  PAW double counting   =      6170.35410510    -6167.60809011
  entropy T*S    EENTRO =        -0.00000139
  eigenvalues    EBANDS =      -394.29495054
  atomic energy  EATOM  =      1727.95004229
  Solvation  Ediel_sol  =         0.00000000
  ---------------------------------------------------
  free energy    TOTEN  =       -11.86650967 eV

  energy without entropy =      -11.86650828  energy(sigma->0) =      -11.86650898


--------------------------------------------------------------------------------------------------------




--------------------------------------- Iteration      1(  14)  ---------------------------------------


    POTLOK:  cpu time    0.0405: real time    0.0405
    SETDIJ:  cpu time    0.0058: real time    0.0058
     EDDAV:  cpu time    0.0308: real time    0.0308
       DOS:  cpu time    0.0001: real time    0.0001
    CHARGE:  cpu time    0.0846: real time    0.0846
    MIXING:  cpu time    0.0558: real time    0.0558
    --------------------------------------------
      LOOP:  cpu time    0.2175: real time    0.2176

 eigenvalue-minimisations  :    32
 total energy-change (2. order) : 0.1760909E+00  (-0.7654597E-03)
 number of electron      23.9999983 magnetization 
 augmentation part        1.9756709 magnetization 

 Broyden mixing:
  rms(total) = 0.10285E+01    rms(broyden)= 0.10284E+01
  rms(prec ) = 0.11498E+01
  weight for this iteration     100.00

 eigenvalues of (default mixing * dielectric matrix)
  average eigenvalue GAMMA=   0.8574
  2.6085  1.1074  1.1074  0.5909  0.5909  0.5794  0.4002  0.4002  0.3321

 Free energy of the ion-electron system (eV)
  ---------------------------------------------------
  alpha Z        PSCENC =         0.35861207
  Ewald energy   TEWEN  =      1259.69217248
  -Hartree energ DENC   =     -2714.43266932
  -exchange      EXHF   =         0.00000000
  -V(xc)+E(xc)   XCENC  =       106.25747928
  PAW double counting   =      6176.88343959    -6174.13670744
  entropy T*S    EENTRO =        -0.00000019
  eigenvalues    EBANDS =      -394.26278757
  atomic energy  EATOM  =      1727.95004229
  Solvation  Ediel_sol  =         0.00000000
  ---------------------------------------------------
  free energy    TOTEN  =       -11.69041881 eV

  energy without entropy =      -11.69041863  energy(sigma->0) =      -11.69041872


--------------------------------------------------------------------------------------------------------




--------------------------------------- Iteration      1(  15)  ---------------------------------------


    POTLOK:  cpu time    0.0362: real time    0.0362
    SETDIJ:  cpu time    0.0057: real time    0.0057
     EDDAV:  cpu time    0.0424: real time    0.0424
       DOS:  cpu time    0.0001: real time    0.0001
    CHARGE:  cpu time    0.0797: real time    0.0797
    MIXING:  cpu time    0.0581: real time    0.0581
    --------------------------------------------
      LOOP:  cpu time    0.2220: real time    0.2221

 eigenvalue-minimisations  :    48
 total energy-change (2. order) : 0.1184140E+00  (-0.9212714E-03)
 number of electron      23.9999983 magnetization 
 augmentation part        1.9753063 magnetization 

 Broyden mixing:
  rms(total) = 0.10004E+01    rms(broyden)= 0.10004E+01
  rms(prec ) = 0.11164E+01
  weight for this iteration     100.00

 eigenvalues of (default mixing * dielectric matrix)
  average eigenvalue GAMMA=   0.9433
  2.6068  1.3918  1.1065  1.1065  0.5307  0.5307  0.5926  0.5926  0.5904  0.3846

 Free energy of the ion-electron system (eV)
  ---------------------------------------------------
  alpha Z        PSCENC =         0.35861207
  Ewald energy   TEWEN  =      1259.69217248
  -Hartree energ DENC   =     -2714.45565108
  -exchange      EXHF   =         0.00000000
  -V(xc)+E(xc)   XCENC  =       106.26927198
  PAW double counting   =      6178.77469165    -6176.02948342
  entropy T*S    EENTRO =        -0.00004006
  eigenvalues    EBANDS =      -394.13162075
  atomic energy  EATOM  =      1727.95004229
  Solvation  Ediel_sol  =         0.00000000
  ---------------------------------------------------
  free energy    TOTEN  =       -11.57200484 eV

  energy without entropy =      -11.57196477  energy(sigma->0) =      -11.57198480


--------------------------------------------------------------------------------------------------------




--------------------------------------- Iteration      1(  16)  ---------------------------------------


    POTLOK:  cpu time    0.0361: real time    0.0361
    SETDIJ:  cpu time    0.0058: real time    0.0058
     EDDAV:  cpu time    0.0365: real time    0.0365
       DOS:  cpu time    0.0001: real time    0.0001
    CHARGE:  cpu time    0.0798: real time    0.0798
    MIXING:  cpu time    0.0609: real time    0.0614
    --------------------------------------------
      LOOP:  cpu time    0.2192: real time    0.2196

 eigenvalue-minimisations  :    40
 total energy-change (2. order) :-0.2373522E+00  (-0.6880576E-02)
 number of electron      23.9999983 magnetization 
 augmentation part        1.9769127 magnetization 

 Broyden mixing:
  rms(total) = 0.10918E+01    rms(broyden)= 0.10918E+01
  rms(prec ) = 0.12229E+01
  weight for this iteration     100.00

 eigenvalues of (default mixing * dielectric matrix)
  average eigenvalue GAMMA=   1.1456
  2.6517  1.8307  1.8307  1.2921  1.2921  0.7247  0.7247  0.6038  0.6038  0.6117
  0.4355

 Free energy of the ion-electron system (eV)
  ---------------------------------------------------
  alpha Z        PSCENC =         0.35861207
  Ewald energy   TEWEN  =      1259.69217248
  -Hartree energ DENC   =     -2714.55152506
  -exchange      EXHF   =         0.00000000
  -V(xc)+E(xc)   XCENC  =       106.34215187
  PAW double counting   =      6181.09938730    -6178.35346356
  entropy T*S    EENTRO =        -0.00000000
  eigenvalues    EBANDS =      -394.34673438
  atomic energy  EATOM  =      1727.95004229
  Solvation  Ediel_sol  =         0.00000000
  ---------------------------------------------------
  free energy    TOTEN  =       -11.80935699 eV

  energy without entropy =      -11.80935699  energy(sigma->0) =      -11.80935699


--------------------------------------------------------------------------------------------------------




--------------------------------------- Iteration      1(  17)  ---------------------------------------


    POTLOK:  cpu time    0.0361: real time    0.0361
    SETDIJ:  cpu time    0.0057: real time    0.0057
     EDDAV:  cpu time    0.0364: real time    0.0364
       DOS:  cpu time    0.0001: real time    0.0001
    CHARGE:  cpu time    0.0806: real time    0.0806
    MIXING:  cpu time    0.0638: real time    0.0638
    --------------------------------------------
      LOOP:  cpu time    0.2226: real time    0.2227

 eigenvalue-minimisations  :    40
 total energy-change (2. order) :-0.1472807E+01  (-0.2849616E+01)
 number of electron      24.0000012 magnetization 
 augmentation part        1.9904560 magnetization 

 Broyden mixing:
  rms(total) = 0.13171E+01    rms(broyden)= 0.12719E+01
  rms(prec ) = 0.14557E+01
  weight for this iteration     100.00

 eigenvalues of (default mixing * dielectric matrix)
  average eigenvalue GAMMA=   1.0417
  2.6314  1.6227  1.6227  1.2341  1.2341  0.8002  0.8002  0.5826  0.5826  0.5942
  0.3977  0.3977

 Free energy of the ion-electron system (eV)
  ---------------------------------------------------
  alpha Z        PSCENC =         0.35861207
  Ewald energy   TEWEN  =      1259.69217248
  -Hartree energ DENC   =     -2712.61058464
  -exchange      EXHF   =         0.00000000
  -V(xc)+E(xc)   XCENC  =       105.90449226
  PAW double counting   =      6118.77539423    -6116.03289625
  entropy T*S    EENTRO =        -0.00000000
  eigenvalues    EBANDS =      -397.31939650
  atomic energy  EATOM  =      1727.95004229
  Solvation  Ediel_sol  =         0.00000000
  ---------------------------------------------------
  free energy    TOTEN  =       -13.28216406 eV

  energy without entropy =      -13.28216406  energy(sigma->0) =      -13.28216406


--------------------------------------------------------------------------------------------------------




--------------------------------------- Iteration      1(  18)  ---------------------------------------


    POTLOK:  cpu time    0.0361: real time    0.0361
    SETDIJ:  cpu time    0.0057: real time    0.0057
     EDDAV:  cpu time    0.0309: real time    0.0309
       DOS:  cpu time    0.0001: real time    0.0001
    CHARGE:  cpu time    0.0798: real time    0.0798
    MIXING:  cpu time    0.0673: real time    0.0673
    --------------------------------------------
      LOOP:  cpu time    0.2199: real time    0.2199

 eigenvalue-minimisations  :    32
 total energy-change (2. order) : 0.5322133E+00  (-0.2387553E-01)
 number of electron      24.0000012 magnetization 
 augmentation part        1.9918932 magnetization 

 Broyden mixing:
  rms(total) = 0.12319E+01    rms(broyden)= 0.12297E+01
  rms(prec ) = 0.14001E+01
  weight for this iteration     100.00

 eigenvalues of (default mixing * dielectric matrix)
  average eigenvalue GAMMA=   0.9967
  2.5995  1.6816  1.6816  1.0937  1.0937  0.7921  0.7921  0.5722  0.5722  0.5542
  0.5542  0.4436  0.5259

 Free energy of the ion-electron system (eV)
  ---------------------------------------------------
  alpha Z        PSCENC =         0.35861207
  Ewald energy   TEWEN  =      1259.69217248
  -Hartree energ DENC   =     -2712.37693180
  -exchange      EXHF   =         0.00000000
  -V(xc)+E(xc)   XCENC  =       106.03796318
  PAW double counting   =      6097.74299453    -6094.99207732
  entropy T*S    EENTRO =        -0.00000000
  eigenvalues    EBANDS =      -397.16272618
  atomic energy  EATOM  =      1727.95004229
  Solvation  Ediel_sol  =         0.00000000
  ---------------------------------------------------
  free energy    TOTEN  =       -12.74995074 eV

  energy without entropy =      -12.74995074  energy(sigma->0) =      -12.74995074


--------------------------------------------------------------------------------------------------------




--------------------------------------- Iteration      1(  19)  ---------------------------------------


    POTLOK:  cpu time    0.0362: real time    0.0362
    SETDIJ:  cpu time    0.0057: real time    0.0056
     EDDAV:  cpu time    0.0425: real time    0.0425
       DOS:  cpu time    0.0001: real time    0.0001
    CHARGE:  cpu time    0.0796: real time    0.0796
    MIXING:  cpu time    0.0696: real time    0.0696
    --------------------------------------------
      LOOP:  cpu time    0.2336: real time    0.2336

 eigenvalue-minimisations  :    48
 total energy-change (2. order) : 0.3296970E+00  (-0.1648814E-02)
 number of electron      24.0000012 magnetization 
 augmentation part        1.9905674 magnetization 

 Broyden mixing:
  rms(total) = 0.11803E+01    rms(broyden)= 0.11802E+01
  rms(prec ) = 0.13469E+01
  weight for this iteration     100.00

 eigenvalues of (default mixing * dielectric matrix)
  average eigenvalue GAMMA=   0.9972
  2.5960  1.7045  1.7045  1.0353  1.0353  0.9725  0.9725  0.6497  0.6497  0.6119
  0.6119  0.5698  0.4233  0.4233

 Free energy of the ion-electron system (eV)
  ---------------------------------------------------
  alpha Z        PSCENC =         0.35861207
  Ewald energy   TEWEN  =      1259.69217248
  -Hartree energ DENC   =     -2712.83348450
  -exchange      EXHF   =         0.00000000
  -V(xc)+E(xc)   XCENC  =       106.14949399
  PAW double counting   =      6093.38171814    -6090.63072918
  entropy T*S    EENTRO =        -0.00000000
  eigenvalues    EBANDS =      -396.48807899
  atomic energy  EATOM  =      1727.95004229
  Solvation  Ediel_sol  =         0.00000000
  ---------------------------------------------------
  free energy    TOTEN  =       -12.42025369 eV

  energy without entropy =      -12.42025369  energy(sigma->0) =      -12.42025369


--------------------------------------------------------------------------------------------------------




--------------------------------------- Iteration      1(  20)  ---------------------------------------


    POTLOK:  cpu time    0.0364: real time    0.0364
    SETDIJ:  cpu time    0.0058: real time    0.0058
     EDDAV:  cpu time    0.0365: real time    0.0365
       DOS:  cpu time    0.0001: real time    0.0001
    CHARGE:  cpu time    0.0793: real time    0.0793
    MIXING:  cpu time    0.0739: real time    0.0739
    --------------------------------------------
      LOOP:  cpu time    0.2318: real time    0.2319

 eigenvalue-minimisations  :    40
 total energy-change (2. order) : 0.7405979E+00  (-0.4680620E-01)
 number of electron      24.0000013 magnetization 
 augmentation part        1.9836055 magnetization 

 Broyden mixing:
  rms(total) = 0.93365E+00    rms(broyden)= 0.93316E+00
  rms(prec ) = 0.10600E+01
  weight for this iteration     100.00

 eigenvalues of (default mixing * dielectric matrix)
  average eigenvalue GAMMA=   0.9554
  2.6024  1.7109  1.7109  1.0091  1.0091  0.9693  0.9693  0.7016  0.7016  0.5735
  0.5735  0.5337  0.4473  0.4095  0.4095

 Free energy of the ion-electron system (eV)
  ---------------------------------------------------
  alpha Z        PSCENC =         0.35861207
  Ewald energy   TEWEN  =      1259.69217248
  -Hartree energ DENC   =     -2713.05750487
  -exchange      EXHF   =         0.00000000
  -V(xc)+E(xc)   XCENC  =       106.06524891
  PAW double counting   =      6093.24841183    -6090.47905469
  entropy T*S    EENTRO =        -0.00002633
  eigenvalues    EBANDS =      -395.45755749
  atomic energy  EATOM  =      1727.95004229
  Solvation  Ediel_sol  =         0.00000000
  ---------------------------------------------------
  free energy    TOTEN  =       -11.67965580 eV

  energy without entropy =      -11.67962947  energy(sigma->0) =      -11.67964263


--------------------------------------------------------------------------------------------------------




--------------------------------------- Iteration      1(  21)  ---------------------------------------


    POTLOK:  cpu time    0.0362: real time    0.0362
    SETDIJ:  cpu time    0.0059: real time    0.0059
     EDDAV:  cpu time    0.0364: real time    0.0364
       DOS:  cpu time    0.0001: real time    0.0001
    CHARGE:  cpu time    0.0794: real time    0.0795
    MIXING:  cpu time    0.0791: real time    0.0791
    --------------------------------------------
      LOOP:  cpu time    0.2371: real time    0.2371

 eigenvalue-minimisations  :    40
 total energy-change (2. order) : 0.7345986E-01  (-0.2952061E-02)
 number of electron      24.0000013 magnetization 
 augmentation part        1.9828267 magnetization 

 Broyden mixing:
  rms(total) = 0.90323E+00    rms(broyden)= 0.90320E+00
  rms(prec ) = 0.10272E+01
  weight for this iteration     100.00

 eigenvalues of (default mixing * dielectric matrix)
  average eigenvalue GAMMA=   0.9843
  2.5292  1.3021  1.3021  1.5327  1.5327  0.9595  0.9595  0.8335  0.8335  0.6147
  0.6147  0.6053  0.6053  0.6288  0.4478  0.4478

 Free energy of the ion-electron system (eV)
  ---------------------------------------------------
  alpha Z        PSCENC =         0.35861207
  Ewald energy   TEWEN  =      1259.69217248
  -Hartree energ DENC   =     -2712.96635435
  -exchange      EXHF   =         0.00000000
  -V(xc)+E(xc)   XCENC  =       106.06621994
  PAW double counting   =      6092.46764370    -6089.69567048
  entropy T*S    EENTRO =        -0.00056306
  eigenvalues    EBANDS =      -395.47829854
  atomic energy  EATOM  =      1727.95004229
  Solvation  Ediel_sol  =         0.00000000
  ---------------------------------------------------
  free energy    TOTEN  =       -11.60619594 eV

  energy without entropy =      -11.60563289  energy(sigma->0) =      -11.60591441


--------------------------------------------------------------------------------------------------------




--------------------------------------- Iteration      1(  22)  ---------------------------------------


    POTLOK:  cpu time    0.0362: real time    0.0362
    SETDIJ:  cpu time    0.0057: real time    0.0057
     EDDAV:  cpu time    0.0365: real time    0.0365
       DOS:  cpu time    0.0001: real time    0.0001
    CHARGE:  cpu time    0.0797: real time    0.0797
    MIXING:  cpu time    0.0816: real time    0.0816
    --------------------------------------------
      LOOP:  cpu time    0.2397: real time    0.2397

 eigenvalue-minimisations  :    40
 total energy-change (2. order) :-0.5740541E+00  (-0.1133336E+01)
 number of electron      23.9999983 magnetization 
 augmentation part        1.9832098 magnetization 

 Broyden mixing:
  rms(total) = 0.11223E+01    rms(broyden)= 0.10676E+01
  rms(prec ) = 0.12096E+01
  weight for this iteration     100.00

 eigenvalues of (default mixing * dielectric matrix)
  average eigenvalue GAMMA=   0.9581
  2.5053  1.2682  1.2682  1.7027  1.7027  0.9530  0.9530  0.9091  0.9091  0.5756
  0.5756  0.5725  0.5725  0.4743  0.4483  0.4489  0.4489

 Free energy of the ion-electron system (eV)
  ---------------------------------------------------
  alpha Z        PSCENC =         0.35861207
  Ewald energy   TEWEN  =      1259.69217248
  -Hartree energ DENC   =     -2713.63888700
  -exchange      EXHF   =         0.00000000
  -V(xc)+E(xc)   XCENC  =       105.99357428
  PAW double counting   =      6096.33682627    -6093.56340414
  entropy T*S    EENTRO =        -0.00000000
  eigenvalues    EBANDS =      -395.30918626
  atomic energy  EATOM  =      1727.95004229
  Solvation  Ediel_sol  =         0.00000000
  ---------------------------------------------------
  free energy    TOTEN  =       -12.18025000 eV

  energy without entropy =      -12.18025000  energy(sigma->0) =      -12.18025000


--------------------------------------------------------------------------------------------------------




--------------------------------------- Iteration      1(  23)  ---------------------------------------


    POTLOK:  cpu time    0.0361: real time    0.0361
    SETDIJ:  cpu time    0.0057: real time    0.0057
     EDDAV:  cpu time    0.0363: real time    0.0363
       DOS:  cpu time    0.0001: real time    0.0001
    CHARGE:  cpu time    0.0799: real time    0.0799
    MIXING:  cpu time    0.0853: real time    0.0853
    --------------------------------------------
      LOOP:  cpu time    0.2434: real time    0.2435

 eigenvalue-minimisations  :    40
 total energy-change (2. order) : 0.3714618E+00  (-0.3714587E+00)
 number of electron      24.0000012 magnetization 
 augmentation part        1.9797246 magnetization 

 Broyden mixing:
  rms(total) = 0.89769E+00    rms(broyden)= 0.85541E+00
  rms(prec ) = 0.97361E+00
  weight for this iteration     100.00

 eigenvalues of (default mixing * dielectric matrix)
  average eigenvalue GAMMA=   0.9585
  2.4866  1.2898  1.2898  1.6519  1.6519  1.0996  1.0996  0.9362  0.9362  0.6115
  0.6115  0.5897  0.5897  0.5904  0.4772  0.4772  0.4322  0.4322

 Free energy of the ion-electron system (eV)
  ---------------------------------------------------
  alpha Z        PSCENC =         0.35861207
  Ewald energy   TEWEN  =      1259.69217248
  -Hartree energ DENC   =     -2713.55276905
  -exchange      EXHF   =         0.00000000
  -V(xc)+E(xc)   XCENC  =       105.92837002
  PAW double counting   =      6092.40945122    -6089.64177354
  entropy T*S    EENTRO =        -0.00369647
  eigenvalues    EBANDS =      -394.94919727
  atomic energy  EATOM  =      1727.95004229
  Solvation  Ediel_sol  =         0.00000000
  ---------------------------------------------------
  free energy    TOTEN  =       -11.80878824 eV

  energy without entropy =      -11.80509177  energy(sigma->0) =      -11.80694000


--------------------------------------------------------------------------------------------------------




--------------------------------------- Iteration      1(  24)  ---------------------------------------


    POTLOK:  cpu time    0.0362: real time    0.0362
    SETDIJ:  cpu time    0.0056: real time    0.0056
     EDDAV:  cpu time    0.0309: real time    0.0309
       DOS:  cpu time    0.0001: real time    0.0001
    CHARGE:  cpu time    0.0795: real time    0.0795
    MIXING:  cpu time    0.0911: real time    0.0912
    --------------------------------------------
      LOOP:  cpu time    0.2435: real time    0.2435

 eigenvalue-minimisations  :    32
 total energy-change (2. order) :-0.3108856E-02  (-0.3069260E+00)
 number of electron      23.9999983 magnetization 
 augmentation part        1.9803783 magnetization 

 Broyden mixing:
  rms(total) = 0.95098E+00    rms(broyden)= 0.90656E+00
  rms(prec ) = 0.10217E+01
  weight for this iteration     100.00

 eigenvalues of (default mixing * dielectric matrix)
  average eigenvalue GAMMA=   0.9737
  2.5331  1.2813  1.2813  1.6272  1.6272  1.3377  1.3377  0.9834  0.9834  0.7165
  0.7165  0.5852  0.5852  0.5755  0.5755  0.5706  0.4340  0.4340  0.3147

 Free energy of the ion-electron system (eV)
  ---------------------------------------------------
  alpha Z        PSCENC =         0.35861207
  Ewald energy   TEWEN  =      1259.69217248
  -Hartree energ DENC   =     -2713.70593382
  -exchange      EXHF   =         0.00000000
  -V(xc)+E(xc)   XCENC  =       105.93535842
  PAW double counting   =      6098.84842669    -6096.07729505
  entropy T*S    EENTRO =        -0.00549608
  eigenvalues    EBANDS =      -394.80778411
  atomic energy  EATOM  =      1727.95004229
  Solvation  Ediel_sol  =         0.00000000
  ---------------------------------------------------
  free energy    TOTEN  =       -11.81189710 eV

  energy without entropy =      -11.80640102  energy(sigma->0) =      -11.80914906


--------------------------------------------------------------------------------------------------------




--------------------------------------- Iteration      1(  25)  ---------------------------------------


    POTLOK:  cpu time    0.0362: real time    0.0362
    SETDIJ:  cpu time    0.0057: real time    0.0057
     EDDAV:  cpu time    0.0309: real time    0.0309
       DOS:  cpu time    0.0001: real time    0.0001
    CHARGE:  cpu time    0.0796: real time    0.0796
    MIXING:  cpu time    0.0942: real time    0.0943
    --------------------------------------------
      LOOP:  cpu time    0.2467: real time    0.2468

 eigenvalue-minimisations  :    32
 total energy-change (2. order) : 0.1695582E+00  (-0.4141760E-01)
 number of electron      24.0000001 magnetization 
 augmentation part        1.9792787 magnetization 

 Broyden mixing:
  rms(total) = 0.22572E+00    rms(broyden)= 0.16698E+00
  rms(prec ) = 0.19078E+00
  weight for this iteration     100.00
  WARNING: grid for Broyden might be to small

 eigenvalues of (default mixing * dielectric matrix)
  average eigenvalue GAMMA=   0.9633
  2.5132  1.2767  1.2767  1.7578  1.5044  1.5044  1.3501  1.0179  1.0179  0.7050
  0.7050  0.5936  0.5936  0.5683  0.5683  0.4833  0.4833  0.5178  0.4591  0.3689

 Free energy of the ion-electron system (eV)
  ---------------------------------------------------
  alpha Z        PSCENC =         0.35861207
  Ewald energy   TEWEN  =      1259.69217248
  -Hartree energ DENC   =     -2713.61081341
  -exchange      EXHF   =         0.00000000
  -V(xc)+E(xc)   XCENC  =       105.97445383
  PAW double counting   =      6099.11645304    -6096.34433855
  entropy T*S    EENTRO =        -0.05421445
  eigenvalues    EBANDS =      -394.72470626
  atomic energy  EATOM  =      1727.95004229
  Solvation  Ediel_sol  =         0.00000000
  ---------------------------------------------------
  free energy    TOTEN  =       -11.64233894 eV

  energy without entropy =      -11.58812449  energy(sigma->0) =      -11.61523172


--------------------------------------------------------------------------------------------------------




--------------------------------------- Iteration      1(  26)  ---------------------------------------


    POTLOK:  cpu time    0.0356: real time    0.0356
    SETDIJ:  cpu time    0.0057: real time    0.0057
     EDDAV:  cpu time    0.0308: real time    0.0308
       DOS:  cpu time    0.0001: real time    0.0001
    CHARGE:  cpu time    0.0789: real time    0.0790
    MIXING:  cpu time    0.0991: real time    0.0992
    --------------------------------------------
      LOOP:  cpu time    0.2504: real time    0.2504

 eigenvalue-minimisations  :    32
 total energy-change (2. order) :-0.2405472E+00  (-0.1656990E-01)
 number of electron      23.9999992 magnetization 
 augmentation part        1.9801226 magnetization 

 Broyden mixing:
  rms(total) = 0.37342E+00    rms(broyden)= 0.36563E+00
  rms(prec ) = 0.41210E+00
  weight for this iteration     100.00

 eigenvalues of (default mixing * dielectric matrix)
  average eigenvalue GAMMA=   1.0017
  2.5549  1.8969  1.8969  1.2748  1.2748  1.8606  1.0397  1.0397  1.1527  0.8007
  0.8007  0.5654  0.5654  0.6680  0.6680  0.5764  0.5764  0.5923  0.4468  0.4468
  0.3379

 Free energy of the ion-electron system (eV)
  ---------------------------------------------------
  alpha Z        PSCENC =         0.35861207
  Ewald energy   TEWEN  =      1259.69217248
  -Hartree energ DENC   =     -2713.62279742
  -exchange      EXHF   =         0.00000000
  -V(xc)+E(xc)   XCENC  =       105.83078084
  PAW double counting   =      6101.27009398    -6098.49583564
  entropy T*S    EENTRO =        -0.04982151
  eigenvalues    EBANDS =      -394.81613328
  atomic energy  EATOM  =      1727.95004229
  Solvation  Ediel_sol  =         0.00000000
  ---------------------------------------------------
  free energy    TOTEN  =       -11.88288619 eV

  energy without entropy =      -11.83306468  energy(sigma->0) =      -11.85797543


--------------------------------------------------------------------------------------------------------




--------------------------------------- Iteration      1(  27)  ---------------------------------------


    POTLOK:  cpu time    0.0362: real time    0.0362
    SETDIJ:  cpu time    0.0056: real time    0.0056
     EDDAV:  cpu time    0.0309: real time    0.0309
       DOS:  cpu time    0.0001: real time    0.0001
    CHARGE:  cpu time    0.0791: real time    0.0792
    MIXING:  cpu time    0.1046: real time    0.1046
    --------------------------------------------
      LOOP:  cpu time    0.2565: real time    0.2565

 eigenvalue-minimisations  :    32
 total energy-change (2. order) : 0.7496550E-01  (-0.4020124E-01)
 number of electron      24.0000006 magnetization 
 augmentation part        1.9794235 magnetization 

 Broyden mixing:
  rms(total) = 0.47028E+00    rms(broyden)= 0.44690E+00
  rms(prec ) = 0.50764E+00
  weight for this iteration     100.00

 eigenvalues of (default mixing * dielectric matrix)
  average eigenvalue GAMMA=   1.0012
  2.5413  1.9515  1.9515  2.0266  1.2738  1.2738  1.0765  1.0765  0.8631  0.8631
  1.0319  0.7771  0.7771  0.5667  0.5667  0.5338  0.5338  0.5570  0.5570  0.4524
  0.4524  0.3219

 Free energy of the ion-electron system (eV)
  ---------------------------------------------------
  alpha Z        PSCENC =         0.35861207
  Ewald energy   TEWEN  =      1259.69217248
  -Hartree energ DENC   =     -2713.55429327
  -exchange      EXHF   =         0.00000000
  -V(xc)+E(xc)   XCENC  =       105.87017938
  PAW double counting   =      6100.96550102    -6098.19105677
  entropy T*S    EENTRO =        -0.04316205
  eigenvalues    EBANDS =      -394.85591584
  atomic energy  EATOM  =      1727.95004229
  Solvation  Ediel_sol  =         0.00000000
  ---------------------------------------------------
  free energy    TOTEN  =       -11.80792069 eV

  energy without entropy =      -11.76475864  energy(sigma->0) =      -11.78633966


--------------------------------------------------------------------------------------------------------




--------------------------------------- Iteration      1(  28)  ---------------------------------------


    POTLOK:  cpu time    0.0362: real time    0.0362
    SETDIJ:  cpu time    0.0057: real time    0.0057
     EDDAV:  cpu time    0.0308: real time    0.0308
       DOS:  cpu time    0.0001: real time    0.0001
    CHARGE:  cpu time    0.0787: real time    0.0788
    MIXING:  cpu time    0.1102: real time    0.1102
    --------------------------------------------
      LOOP:  cpu time    0.2617: real time    0.2618

 eigenvalue-minimisations  :    32
 total energy-change (2. order) :-0.7359025E-02  (-0.6601598E-01)
 number of electron      23.9999989 magnetization 
 augmentation part        1.9803285 magnetization 

 Broyden mixing:
  rms(total) = 0.58443E+00    rms(broyden)= 0.55900E+00
  rms(prec ) = 0.63322E+00
  weight for this iteration     100.00

 eigenvalues of (default mixing * dielectric matrix)
  average eigenvalue GAMMA=   1.0055
  2.6887  2.3608  1.9101  1.9101  1.2765  1.2765  1.0711  1.0711  0.9255  0.9255
  0.8851  0.8851  0.8507  0.5752  0.5752  0.5761  0.5761  0.5322  0.5322  0.5519
  0.4364  0.4364  0.2987

 Free energy of the ion-electron system (eV)
  ---------------------------------------------------
  alpha Z        PSCENC =         0.35861207
  Ewald energy   TEWEN  =      1259.69217248
  -Hartree energ DENC   =     -2713.48442850
  -exchange      EXHF   =         0.00000000
  -V(xc)+E(xc)   XCENC  =       105.86643550
  PAW double counting   =      6100.91905431    -6098.14150145
  entropy T*S    EENTRO =        -0.03938231
  eigenvalues    EBANDS =      -394.93628411
  atomic energy  EATOM  =      1727.95004229
  Solvation  Ediel_sol  =         0.00000000
  ---------------------------------------------------
  free energy    TOTEN  =       -11.81527971 eV

  energy without entropy =      -11.77589740  energy(sigma->0) =      -11.79558856


--------------------------------------------------------------------------------------------------------




--------------------------------------- Iteration      1(  29)  ---------------------------------------


    POTLOK:  cpu time    0.0363: real time    0.0363
    SETDIJ:  cpu time    0.0057: real time    0.0057
     EDDAV:  cpu time    0.0308: real time    0.0308
       DOS:  cpu time    0.0001: real time    0.0001
    CHARGE:  cpu time    0.0791: real time    0.0792
    MIXING:  cpu time    0.1180: real time    0.1181
    --------------------------------------------
      LOOP:  cpu time    0.2700: real time    0.2701

 eigenvalue-minimisations  :    32
 total energy-change (2. order) : 0.1665806E-01  (-0.1068327E+00)
 number of electron      24.0000009 magnetization 
 augmentation part        1.9796700 magnetization 

 Broyden mixing:
  rms(total) = 0.69809E+00    rms(broyden)= 0.66618E+00
  rms(prec ) = 0.75559E+00
  weight for this iteration     100.00

 eigenvalues of (default mixing * dielectric matrix)
  average eigenvalue GAMMA=   1.0003
  2.7809  2.3004  1.2758  1.2758  1.4254  1.4254  1.5514  1.5514  0.9502  0.9502
  0.8985  0.8985  0.9284  0.5779  0.5779  0.6794  0.6794  0.5675  0.5675  0.4809
  0.4809  0.4431  0.4431  0.2974

 Free energy of the ion-electron system (eV)
  ---------------------------------------------------
  alpha Z        PSCENC =         0.35861207
  Ewald energy   TEWEN  =      1259.69217248
  -Hartree energ DENC   =     -2713.46824822
  -exchange      EXHF   =         0.00000000
  -V(xc)+E(xc)   XCENC  =       105.88680282
  PAW double counting   =      6099.63779386    -6096.86111843
  entropy T*S    EENTRO =        -0.02667718
  eigenvalues    EBANDS =      -394.96800136
  atomic energy  EATOM  =      1727.95004229
  Solvation  Ediel_sol  =         0.00000000
  ---------------------------------------------------
  free energy    TOTEN  =       -11.79862165 eV

  energy without entropy =      -11.77194448  energy(sigma->0) =      -11.78528307


--------------------------------------------------------------------------------------------------------




--------------------------------------- Iteration      1(  30)  ---------------------------------------


    POTLOK:  cpu time    0.0362: real time    0.0362
    SETDIJ:  cpu time    0.0057: real time    0.0057
     EDDAV:  cpu time    0.0308: real time    0.0308
       DOS:  cpu time    0.0001: real time    0.0001
    CHARGE:  cpu time    0.0790: real time    0.0790
    MIXING:  cpu time    0.1160: real time    0.1160
    --------------------------------------------
      LOOP:  cpu time    0.2677: real time    0.2678

 eigenvalue-minimisations  :    32
 total energy-change (2. order) : 0.6343632E-01  (-0.7302299E-01)
 number of electron      23.9999990 magnetization 
 augmentation part        1.9803457 magnetization 

 Broyden mixing:
  rms(total) = 0.48048E+00    rms(broyden)= 0.44596E+00
  rms(prec ) = 0.50522E+00
  weight for this iteration     100.00

 eigenvalues of (default mixing * dielectric matrix)
  average eigenvalue GAMMA=   1.0042
  2.9041  2.4207  1.2753  1.2753  1.6815  1.6815  1.5436  1.5436  0.9666  0.9666
  0.8778  0.8778  0.8278  0.7124  0.7124  0.5784  0.5784  0.5638  0.5638  0.4892
  0.4892  0.4559  0.4559  0.3732  0.2910

 Free energy of the ion-electron system (eV)
  ---------------------------------------------------
  alpha Z        PSCENC =         0.35861207
  Ewald energy   TEWEN  =      1259.69217248
  -Hartree energ DENC   =     -2713.43994346
  -exchange      EXHF   =         0.00000000
  -V(xc)+E(xc)   XCENC  =       105.90920505
  PAW double counting   =      6099.81850271    -6097.03939734
  entropy T*S    EENTRO =        -0.04595502
  eigenvalues    EBANDS =      -394.93842411
  atomic energy  EATOM  =      1727.95004229
  Solvation  Ediel_sol  =         0.00000000
  ---------------------------------------------------
  free energy    TOTEN  =       -11.73518533 eV

  energy without entropy =      -11.68923031  energy(sigma->0) =      -11.71220782


--------------------------------------------------------------------------------------------------------




--------------------------------------- Iteration      1(  31)  ---------------------------------------


    POTLOK:  cpu time    0.0345: real time    0.0345
    SETDIJ:  cpu time    0.0057: real time    0.0057
     EDDAV:  cpu time    0.0310: real time    0.0310
       DOS:  cpu time    0.0001: real time    0.0001
    CHARGE:  cpu time    0.0693: real time    0.0693
    MIXING:  cpu time    0.1280: real time    0.1280
    --------------------------------------------
      LOOP:  cpu time    0.2685: real time    0.2686

 eigenvalue-minimisations  :    32
 total energy-change (2. order) :-0.6455715E-01  (-0.1248093E-01)
 number of electron      24.0000000 magnetization 
 augmentation part        1.9800202 magnetization 

 Broyden mixing:
  rms(total) = 0.11641E+00    rms(broyden)= 0.91761E-01
  rms(prec ) = 0.10400E+00
  weight for this iteration     100.00
  WARNING: grid for Broyden might be to small

 eigenvalues of (default mixing * dielectric matrix)
  average eigenvalue GAMMA=   1.0107
  3.4491  2.4461  1.2754  1.2754  1.6925  1.6925  1.5668  1.5668  0.9872  0.9872
  0.8612  0.8612  0.7538  0.6922  0.6922  0.5844  0.5844  0.5189  0.5189  0.5725
  0.5725  0.4723  0.4723  0.4426  0.4426  0.2972

 Free energy of the ion-electron system (eV)
  ---------------------------------------------------
[...]
  eigenvalues    EBANDS =      -394.93028743
  atomic energy  EATOM  =      1727.95004229
  Solvation  Ediel_sol  =         0.00000000
  ---------------------------------------------------
  free energy    TOTEN  =       -11.87548377 eV

  energy without entropy =      -11.81911718  energy(sigma->0) =      -11.84730047


--------------------------------------------------------------------------------------------------------




--------------------------------------- Iteration      1(  58)  ---------------------------------------


    POTLOK:  cpu time    0.0344: real time    0.0344
    SETDIJ:  cpu time    0.0057: real time    0.0057
     EDDAV:  cpu time    0.0313: real time    0.0313
       DOS:  cpu time    0.0001: real time    0.0001
    CHARGE:  cpu time    0.0681: real time    0.0681
    MIXING:  cpu time    0.2637: real time    0.2638
    --------------------------------------------
      LOOP:  cpu time    0.4032: real time    0.4033

 eigenvalue-minimisations  :    32
 total energy-change (2. order) :-0.1153334E-04  (-0.4158125E-08)
 number of electron      23.9999998 magnetization 
 augmentation part        1.9806553 magnetization 

 Broyden mixing:
  rms(total) = 0.39628E-02    rms(broyden)= 0.39508E-02
  rms(prec ) = 0.44748E-02
  weight for this iteration     100.00

 eigenvalues of (default mixing * dielectric matrix)
  average eigenvalue GAMMA=   1.3280
  5.9847  5.1272  2.9141  2.9141  2.6300  2.4360  1.8429  1.8429  2.2225  2.0549
  2.0549  1.4349  1.4349  1.4169  1.4169  1.3911  1.0075  1.0075  1.0274  1.0274
  1.0983  1.0983  0.0116  0.6766  0.6766  0.7639  0.7639  0.6690  0.6690  0.2392
  0.4001  0.4001  0.4399  0.4399  0.7388  0.6771  0.6771  0.5983  0.5983  0.6007
  0.6007  0.5016  0.5784

 Free energy of the ion-electron system (eV)
  ---------------------------------------------------
  alpha Z        PSCENC =         0.35861207
  Ewald energy   TEWEN  =      1259.69217248
  -Hartree energ DENC   =     -2713.48614539
  -exchange      EXHF   =         0.00000000
  -V(xc)+E(xc)   XCENC  =       105.82034845
  PAW double counting   =      6099.06929701    -6096.29290244
  entropy T*S    EENTRO =        -0.05637139
  eigenvalues    EBANDS =      -394.93054840
  atomic energy  EATOM  =      1727.95004229
  Solvation  Ediel_sol  =         0.00000000
  ---------------------------------------------------
  free energy    TOTEN  =       -11.87549530 eV

  energy without entropy =      -11.81912391  energy(sigma->0) =      -11.84730961


--------------------------------------------------------------------------------------------------------




--------------------------------------- Iteration      1(  59)  ---------------------------------------


    POTLOK:  cpu time    0.0344: real time    0.0344
    SETDIJ:  cpu time    0.0056: real time    0.0056
     EDDAV:  cpu time    0.0257: real time    0.0257
       DOS:  cpu time    0.0001: real time    0.0001
    CHARGE:  cpu time    0.0679: real time    0.0679
    MIXING:  cpu time    0.2728: real time    0.2729
    --------------------------------------------
      LOOP:  cpu time    0.4066: real time    0.4066

 eigenvalue-minimisations  :    24
 total energy-change (2. order) :-0.2537214E-04  (-0.1541618E-07)
 number of electron      23.9999998 magnetization 
 augmentation part        1.9806573 magnetization 

 Broyden mixing:
  rms(total) = 0.29073E-02    rms(broyden)= 0.28947E-02
  rms(prec ) = 0.32783E-02
  weight for this iteration     100.00

 eigenvalues of (default mixing * dielectric matrix)
  average eigenvalue GAMMA=   1.3344
  5.9346  5.2433  2.9927  2.9927  2.5924  2.4507  1.9467  1.9467  2.2175  2.0281
  2.0281  1.5474  1.5474  1.4241  1.4241  1.5017  1.0250  1.0250  1.0124  1.0124
  0.8786  0.8786  0.0131  1.1058  1.1058  0.6380  0.6380  0.7747  0.7747  0.4832
  0.4832  0.2730  0.4098  0.4098  0.7064  0.6991  0.6991  0.5710  0.5710  0.6292
  0.6292  0.4226  0.5203  0.5075

 Free energy of the ion-electron system (eV)
  ---------------------------------------------------
  alpha Z        PSCENC =         0.35861207
  Ewald energy   TEWEN  =      1259.69217248
  -Hartree energ DENC   =     -2713.48573212
  -exchange      EXHF   =         0.00000000
  -V(xc)+E(xc)   XCENC  =       105.82031695
  PAW double counting   =      6099.05993210    -6096.28353023
  entropy T*S    EENTRO =        -0.05637478
  eigenvalues    EBANDS =      -394.93095945
  atomic energy  EATOM  =      1727.95004229
  Solvation  Ediel_sol  =         0.00000000
  ---------------------------------------------------
  free energy    TOTEN  =       -11.87552068 eV

  energy without entropy =      -11.81914590  energy(sigma->0) =      -11.84733329


--------------------------------------------------------------------------------------------------------




--------------------------------------- Iteration      1(  60)  ---------------------------------------


    POTLOK:  cpu time    0.0344: real time    0.0344
    SETDIJ:  cpu time    0.0056: real time    0.0056
     EDDAV:  cpu time    0.0257: real time    0.0257
       DOS:  cpu time    0.0001: real time    0.0001
    --------------------------------------------
      LOOP:  cpu time    0.0658: real time    0.0658

 eigenvalue-minimisations  :    24
 total energy-change (2. order) :-0.1650466E-04  (-0.8693196E-08)
 number of electron      23.9999998 magnetization 
 augmentation part        1.9806573 magnetization 

 Free energy of the ion-electron system (eV)
  ---------------------------------------------------
  alpha Z        PSCENC =         0.35861207
  Ewald energy   TEWEN  =      1259.69217248
  -Hartree energ DENC   =     -2713.48540959
  -exchange      EXHF   =         0.00000000
  -V(xc)+E(xc)   XCENC  =       105.82029233
  PAW double counting   =      6099.05156696    -6096.27516273
  entropy T*S    EENTRO =        -0.05637751
  eigenvalues    EBANDS =      -394.93127349
  atomic energy  EATOM  =      1727.95004229
  Solvation  Ediel_sol  =         0.00000000
  ---------------------------------------------------
  free energy    TOTEN  =       -11.87553718 eV

  energy without entropy =      -11.81915967  energy(sigma->0) =      -11.84734843


--------------------------------------------------------------------------------------------------------




 average (electrostatic) potential at core
  the test charge radii are     0.6768
  (the norm of the test charge is              1.0000)
       1-129.9515       2-129.2866       3-129.5751       4-129.5751
 
 
 
 E-fermi :  -5.1618     XC(G=0):  -0.4142     alpha+bet : -0.1136

 Fermi energy:        -5.1617543681

 k-point     1 :       0.0000    0.0000    0.0000
  band No.  band energies     occupation 
      1     -35.7448      2.00000
      2     -31.2403      2.00000
      3     -20.5200      2.00000
      4     -20.4862      2.00000
      5     -15.8571      2.00000
      6     -13.6416      2.00000
      7     -13.2440      2.00000
      8     -13.2359      2.00000
      9     -12.9612      2.00000
     10      -8.0421      2.00000
     11      -7.3307      2.00000
     12      -5.1631      1.03058
     13      -5.1604      0.96942
     14      -4.5849      0.00000
     15      -0.2270      0.00000
     16       0.3838      0.00000


--------------------------------------------------------------------------------------------------------


 soft charge-density along one line, spin component            1
         0         1         2         3         4         5         6         7         8         9
 total charge-density along one line
 
 pseudopotential strength for first ion, spin component:            1
 33.871  34.930  39.372   0.000  -0.012  -0.110   0.000  -0.014
 34.930  36.023  40.566   0.000  -0.012  -0.114   0.000  -0.015
 39.372  40.566  32.481   0.000  -0.001  -0.017   0.000  -0.001
  0.000   0.000   0.000  -7.175  -0.000  -0.000  -8.080  -0.000
 -0.012  -0.012  -0.001  -0.000  -7.162  -0.008  -0.000  -8.066
 -0.110  -0.114  -0.017  -0.000  -0.008  -7.312  -0.000  -0.009
  0.000   0.000   0.000  -8.080  -0.000  -0.000  -9.085  -0.000
 -0.014  -0.015  -0.001  -0.000  -8.066  -0.009  -0.000  -9.069
 -0.131  -0.136  -0.021  -0.000  -0.009  -8.240  -0.000  -0.011
 -0.000  -0.000  -0.000  -1.771   0.000   0.000  -3.021   0.000
  0.053   0.055  -0.007   0.000  -1.778   0.015   0.000  -3.028
  0.642   0.664   0.293   0.000   0.015  -1.536   0.000   0.017
  0.000   0.000  -0.000  -0.045  -0.000   0.000  -0.053  -0.000
  0.000   0.000  -0.000  -0.003   0.000  -0.000  -0.003   0.000
  0.001   0.001   0.000  -0.000  -0.005   0.029  -0.000  -0.006
  0.001   0.001  -0.000  -0.000  -0.046  -0.003  -0.000  -0.055
  0.005   0.005  -0.003   0.000  -0.000  -0.052   0.000  -0.000
  0.000   0.000  -0.000   0.435   0.000  -0.000   0.500   0.000
  0.000   0.000  -0.000   0.034  -0.000   0.000   0.038  -0.000
 -0.080  -0.083   0.018   0.000   0.058  -0.302   0.000   0.066
  0.017   0.018  -0.007   0.000   0.446   0.038   0.000   0.512
  0.136   0.141  -0.048  -0.000   0.002   0.533  -0.000   0.002
 total augmentation occupancy for first ion, spin component:            1
 43.045 -39.950  -0.003   0.000  -8.816 -23.713   0.000   8.441  17.182   0.000   0.023  -0.130   0.000   0.000   0.209  -0.081
-39.950  38.886  -0.017   0.000   8.192  22.708   0.000  -7.835 -16.593   0.000  -0.019   0.139   0.000   0.000  -0.250   0.080
 -0.003  -0.017   0.000   0.000   0.002  -0.007   0.000  -0.003   0.006   0.000  -0.000  -0.000   0.000   0.000   0.001  -0.000
  0.000   0.000   0.000   4.693   0.000   0.000  -2.697   0.000   0.000   0.041   0.000   0.000   0.400   0.125   0.000   0.000
 -8.816   8.192   0.002   0.000   9.463   1.278   0.000  -7.497  -1.103   0.000   0.024  -0.008   0.000   0.000   0.337   0.480
-23.713  22.708  -0.007   0.000   1.278  17.719   0.000  -1.223 -12.905   0.000  -0.004   0.109   0.000   0.000  -0.528   0.057
  0.000   0.000   0.000  -2.697   0.000   0.000   2.243   0.000   0.000  -0.005   0.000   0.000  -0.258  -0.068   0.000   0.000
  8.441  -7.835  -0.003   0.000  -7.497  -1.223   0.000   7.130   1.066   0.000   0.013   0.009   0.000   0.000  -0.303  -0.333
 17.182 -16.593   0.006   0.000  -1.103 -12.905   0.000   1.066  10.081   0.000   0.004  -0.036   0.000   0.000   0.317  -0.044
  0.000   0.000   0.000   0.041   0.000   0.000  -0.005   0.000   0.000   0.001   0.000   0.000   0.003   0.001   0.000   0.000
  0.023  -0.019  -0.000   0.000   0.024  -0.004   0.000   0.013   0.004   0.000   0.001   0.000   0.000   0.000  -0.000   0.003
 -0.130   0.139  -0.000   0.000  -0.008   0.109   0.000   0.009  -0.036   0.000   0.000   0.004   0.000   0.000  -0.008   0.000
  0.000   0.000   0.000   0.400   0.000   0.000  -0.258   0.000   0.000   0.003   0.000   0.000   0.049  -0.002   0.000   0.000
  0.000   0.000   0.000   0.125   0.000   0.000  -0.068   0.000   0.000   0.001   0.000   0.000  -0.002   0.016   0.000   0.000
  0.209  -0.250   0.001   0.000   0.337  -0.528   0.000  -0.303   0.317   0.000  -0.000  -0.008   0.000   0.000   0.049   0.001
 -0.081   0.080  -0.000   0.000   0.480   0.057   0.000  -0.333  -0.044   0.000   0.003   0.000   0.000   0.000   0.001   0.051
 -1.087   1.108  -0.001   0.000  -0.104   1.011   0.000   0.104  -0.630   0.000   0.000   0.014   0.000   0.000  -0.054   0.003
  0.000   0.000   0.000   0.014   0.000   0.000  -0.014   0.000   0.000  -0.000   0.000   0.000   0.002  -0.000   0.000   0.000
  0.000   0.000   0.000   0.008   0.000   0.000  -0.005   0.000   0.000   0.000   0.000   0.000  -0.000   0.001   0.000   0.000
  0.004  -0.009   0.000   0.000   0.027  -0.032   0.000  -0.025   0.018   0.000  -0.000  -0.001   0.000   0.000   0.004   0.000
 -0.020   0.018   0.000   0.000   0.029   0.006   0.000  -0.029  -0.005   0.000  -0.000  -0.000   0.000   0.000   0.001   0.002
 -0.068   0.072  -0.000   0.000  -0.006   0.064   0.000   0.006  -0.039   0.000   0.000   0.001   0.000   0.000  -0.004   0.000


------------------------ aborting loop EDIFF was not reached (unconverged)  ----------------------------


 -----------------------------------------------------------------------------
|                                                                             |
|           W    W    AA    RRRRR   N    N  II  N    N   GGGG   !!!           |
|           W    W   A  A   R    R  NN   N  II  NN   N  G    G  !!!           |
|           W    W  A    A  R    R  N N  N  II  N N  N  G       !!!           |
|           W WW W  AAAAAA  RRRRR   N  N N  II  N  N N  G  GGG   !            |
|           WW  WW  A    A  R   R   N   NN  II  N   NN  G    G                |
|           W    W  A    A  R    R  N    N  II  N    N   GGGG   !!!           |
|                                                                             |
|     The electronic self-consistency was not achieved in the given           |
|     number of steps (NELM). The forces and other quantities evaluated       |
|     might not be reliable so examine the results carefully. If you find     |
|     spurious results, we suggest increasing NELM, if you were close to      |
|     convergence or switching to a different ALGO or adjusting the           |
|     density mixing parameters otherwise.                                    |
|                                                                             |
 -----------------------------------------------------------------------------

    CHARGE:  cpu time    0.1002: real time    0.1002
    FORLOC:  cpu time    0.0078: real time    0.0078
    FORNL :  cpu time    0.0255: real time    0.0255
    STRESS:  cpu time    0.0912: real time    0.0913
    FORCOR:  cpu time    0.0326: real time    0.0326
    FORHAR:  cpu time    0.0065: real time    0.0065
    MIXING:  cpu time    0.2548: real time    0.2549
    OFIELD:  cpu time    0.0000: real time    0.0000

 ---------------------------------------------------------------------------------------------

         DFTD3 V3.0 Rev 1        
 IVDW         = 12
 DF pbe       
 parameters
 VDW_S6       =    1.0000
 VDW_S8       =    0.7875
 VDW_A1       =    0.4289
 VDW_A2       =    4.4407
 k1-k3        =   16.0000    1.3333   -4.0000
 VDW_RADIUS   =   50.2022 A
 VDW_CNRADIUS =   21.1671 A
 Edisp (eV)   -0.03585

 E6    (eV) :    -0.0257
 E8    (eV) :    -0.0101
 % E8        : 28.31
    FORVDW:  cpu time    0.0039: real time    0.0039

  FORCE on cell =-STRESS in cart. coord.  units (eV):
  Direction    XX          YY          ZZ          XY          YZ          ZX
  --------------------------------------------------------------------------------------
  Alpha Z     0.35861     0.35861     0.35861
  Ewald     308.14239   306.99282   644.55663     0.00000    -0.00000   -38.04279
  Hartree   797.25393   796.17470  1120.05427     0.00000    -0.00000   -31.33120
  E(xc)    -121.25046  -121.24803  -121.31218     0.00000    -0.00000    -0.02612
  Local   -1682.63775 -1680.10781 -2391.60513    -0.00000    -0.00000    73.76796
  n-local    96.84747    96.94002    98.20949    -0.00000     0.00000     0.26902
  augment    59.00081    58.95338    69.08342    -0.00000     0.00000    -1.02448
  Kinetic   536.75179   536.79479   593.52151     0.00000    -0.00000    -4.94051
  Fock        0.00000     0.00000     0.00000     0.00000     0.00000     0.00000
  vdW         0.00479     0.00418     0.02641     0.00000    -0.00000    -0.00527
  -------------------------------------------------------------------------------------
  Total      -5.52843    -5.13734    12.89303     0.00000     0.00000    -1.33339
  in kB      -2.90542    -2.69988     6.77582     0.00000     0.00000    -0.70075
  external pressure =        0.39 kB  Pullay stress =        0.00 kB


 VOLUME and BASIS-vectors are now :
 -----------------------------------------------------------------------------
  energy-cutoff  :      360.00
  volume of cell :     3048.63
      direct lattice vectors                 reciprocal lattice vectors
    14.500000000  0.000000000  0.000000000     0.068965517  0.000000000  0.000000000
     0.000000000 14.500000000  0.000000000     0.000000000  0.068965517  0.000000000
     0.000000000  0.000000000 14.500000000     0.000000000  0.000000000  0.068965517

  length of vectors
    14.500000000 14.500000000 14.500000000     0.068965517  0.068965517  0.068965517


 FORCES acting on ions
    electron-ion (+dipol)            ewald-force                    non-local-force                 convergence-correction
 -----------------------------------------------------------------------------------------------
   0.395E+03 -.839E-13 0.318E+03   -.466E+03 0.142E-13 -.319E+03   0.632E+02 0.000E+00 -.825E+01   0.592E-02 -.834E-14 -.370E-01
   -.419E+03 0.118E-12 0.284E+03   0.491E+03 0.711E-14 -.283E+03   -.633E+02 0.000E+00 -.104E+02   -.132E-01 -.622E-13 -.357E-01
   0.141E+02 0.408E+03 -.301E+03   -.128E+02 -.480E+03 0.301E+03   -.194E+01 0.631E+02 0.930E+01   -.913E-03 -.857E-02 -.371E-01
   0.141E+02 -.408E+03 -.301E+03   -.128E+02 0.480E+03 0.301E+03   -.194E+01 -.631E+02 0.930E+01   -.913E-03 0.857E-02 -.371E-01
 -----------------------------------------------------------------------------------------------
   0.402E+01 0.221E-11 0.799E-01   0.711E-14 -.568E-13 0.000E+00   -.402E+01 0.000E+00 -.251E-01   -.914E-02 -.119E-12 -.147E+00
 
 
 POSITION                                       TOTAL-FORCE (eV/Angst)
 -----------------------------------------------------------------------------------
      0.00000      0.00000      0.00000        -7.310611      0.000000     -9.357571
      1.20000      0.00000      0.00000         8.408302      0.000000     -8.874599
      0.50000     13.90000      1.50000        -0.548845     -8.180166      9.116085
      0.50000      0.60000      1.50000        -0.548845      8.180166      9.116085
 -----------------------------------------------------------------------------------
    total drift:                               -0.009152      0.000000     -0.092006


--------------------------------------------------------------------------------------------------------



  FREE ENERGIE OF THE ION-ELECTRON SYSTEM (eV)
  ---------------------------------------------------
  free  energy   TOTEN  =       -11.91138305 eV

  energy  without entropy=      -11.85500554  energy(sigma->0) =      -11.88319429
 


--------------------------------------------------------------------------------------------------------


    POTLOK:  cpu time    0.0588: real time    0.0588


--------------------------------------------------------------------------------------------------------


 stress matrix after NEB project (eV)
     -5.52843      0.00000     -1.33339
      0.00000     -5.13734      0.00000
     -1.33339      0.00000     12.89303
  FORCES: max atom, RMS    12.260479   12.156335
  FORCE total and by dimension   24.312670    9.357571
  Stress total and by dimension   15.057953   12.893034
     LOOP+:  cpu time   17.2489: real time   17.3301
    4ORBIT:  cpu time    0.0000: real time    0.0000

 total amount of memory used by VASP MPI-rank0   287442. kBytes
=======================================================================

   base      :      30000. kBytes
   nonlr-proj:       3766. kBytes
   fftplans  :      94700. kBytes
   grid      :     146764. kBytes
   one-center:         92. kBytes
   wavefun   :      12120. kBytes
 
  
  
 General timing and accounting informations for this job:
 ========================================================
  
                  Total CPU time used (sec):       21.316
                            User time (sec):       19.112
                          System time (sec):        2.204
                         Elapsed time (sec):       21.779
  
                   Maximum memory used (kb):     1892480.
                   Average memory used (kb):          N/A
  
                          Minor page faults:      1200914
                          Major page faults:            0
                 Voluntary context switches:         5507
