<?xml version="1.0" encoding="ISO-8859-1"?>
<modeling>
 <generator>
  <i name="program" type="string">vasp </i>
  <i name="version" type="string">6.2.1  </i>
  <i name="subversion" type="string">16May21 (build Jun 16 2021 03:23:30) complex                          parallel </i>
  <i name="platform" type="string">LinuxPGI </i>
  <i name="date" type="string">2022 04 23 </i>
  <i name="time" type="string">22:18:14 </i>
 </generator>
 <incar>
  <i type="string" name="SYSTEM">NiAl</i>
  <i type="int" name="ISTART">     0</i>
  <i type="int" name="NELMIN">     6</i>
  <i name="EDIFF">      0.00000010</i>
  <i name="ENCUT">    360.00000000</i>
  <i type="string" name="LREAL">Auto</i>
  <i type="logical" name="LPLANE"> T  </i>
  <i type="int" name="ISMEAR">     0</i>
  <i name="SIGMA">      0.05000000</i>
  <i type="logical" name="LWAVE"> F  </i>
  <i type="logical" name="LCHARG"> F  </i>
  <i type="int" name="IVDW">    12</i>
 </incar>
 <primitive_cell>
  <structure name="primitive_cell" >
   <crystal>
    <varray name="basis" >
     <v>      14.50000000       0.00000000       0.00000000 </v>
     <v>       0.00000000      14.50000000       0.00000000 </v>
     <v>       0.00000000       0.00000000      14.50000000 </v>
    </varray>
    <i name="volume">   3048.62500000 </i>
    <varray name="rec_basis" >
     <v>       0.06896552       0.00000000       0.00000000 </v>
     <v>       0.00000000       0.06896552       0.00000000 </v>
     <v>       0.00000000       0.00000000       0.06896552 </v>
    </varray>
   </crystal>
   <varray name="positions" >
    <v>       0.00000000       0.00000000       0.00000000 </v>
    <v>       0.08275862       0.00000000       0.00000000 </v>
    <v>       0.03448276       0.95862069       0.10344828 </v>
    <v>       0.03448276       0.04137931       0.10344828 </v>
   </varray>
  </structure>
  <varray name="primitive_index" >
   <v type="int" >        1 </v>
   <v type="int" >        2 </v>
   <v type="int" >        3 </v>
   <v type="int" >        4 </v>
  </varray>
 </primitive_cell>
 <kpoints>
  <generation param="Gamma">
   <v type="int" name="divisions">       1        1        1 </v>
   <v name="usershift">      0.00000000       0.00000000       0.00000000 </v>
   <v name="genvec1">      1.00000000       0.00000000       0.00000000 </v>
   <v name="genvec2">      0.00000000       1.00000000       0.00000000 </v>
   <v name="genvec3">      0.00000000       0.00000000       1.00000000 </v>
   <v name="shift">      0.00000000       0.00000000       0.00000000 </v>
  </generation>
  <varray name="kpointlist" >
   <v>       0.00000000       0.00000000       0.00000000 </v>
  </varray>
  <varray name="weights" >
   <v>       1.00000000 </v>
  </varray>
 </kpoints>
 <parameters>
  <separator name="general" >
   <i type="string" name="SYSTEM">NiAl</i>
   <i type="logical" name="LCOMPAT"> F  </i>
  </separator>
  <separator name="electronic" >
   <i type="string" name="PREC">normal</i>
   <i name="ENMAX">    360.00000000</i>
   <i name="ENAUG">   1139.60900000</i>
   <i name="EDIFF">      0.00000010</i>
   <i type="int" name="IALGO">    38</i>
   <i type="int" name="IWAVPR">    10</i>
   <i type="int" name="NBANDS">    16</i>
   <i type="int" name="NBANDSLOW">    -1</i>
   <i type="int" name="NBANDSHIGH">    -1</i>
   <i name="NELECT">     24.00000000</i>
   <i type="int" name="TURBO">     0</i>
   <i type="int" name="IRESTART">     0</i>
   <i type="int" name="NREBOOT">     0</i>
   <i type="int" name="NMIN">     0</i>
   <i name="EREF">      0.00000000</i>
   <separator name="electronic smearing" >
    <i type="int" name="ISMEAR">     0</i>
    <i name="SIGMA">      0.05000000</i>
    <i name="KSPACING">      0.50000000</i>
    <i type="logical" name="KGAMMA"> T  </i>
    <i type="logical" name="KBLOWUP"> T  </i>
   </separator>
   <separator name="electronic projectors" >
    <i type="logical" name="LREAL"> T  </i>
    <v name="ROPT">     -0.00050000</v>
    <i type="int" name="LMAXPAW">  -100</i>
    <i type="int" name="LMAXMIX">     2</i>
    <i type="logical" name="NLSPLINE"> F  </i>
   </separator>
   <separator name="electronic startup" >
    <i type="int" name="ISTART">     0</i>
    <i type="int" name="ICHARG">     2</i>
    <i type="int" name="INIWAV">     1</i>
   </separator>
   <separator name="electronic spin" >
    <i type="int" name="ISPIN">     1</i>
    <i type="logical" name="LNONCOLLINEAR"> F  </i>
    <v name="MAGMOM">      1.00000000      1.00000000      1.00000000      1.00000000</v>
    <i name="NUPDOWN">     -1.00000000</i>
    <i type="logical" name="LSORBIT"> F  </i>
    <v name="SAXIS">      0.00000000      0.00000000      1.00000000</v>
    <i type="logical" name="LSPIRAL"> F  </i>
    <v name="QSPIRAL">      0.00000000      0.00000000      0.00000000</v>
    <i type="logical" name="LZEROZ"> F  </i>
   </separator>
   <separator name="electronic exchange-correlation" >
    <i type="logical" name="LASPH"> F  </i>
    <i type="logical" name="LMETAGGA"> F  </i>
   </separator>
   <separator name="electronic convergence" >
    <i type="int" name="NELM">    60</i>
    <i type="int" name="NELMDL">    -5</i>
    <i type="int" name="NELMIN">     6</i>
    <i name="ENINI">    360.00000000</i>
    <separator name="electronic convergence detail" >
     <i type="logical" name="LDIAG"> T  </i>
     <i type="logical" name="LSUBROT"> F  </i>
     <i name="WEIMIN">      0.00000000</i>
     <i name="EBREAK">      0.00000000</i>
     <i name="DEPER">      0.30000000</i>
     <i type="int" name="NRMM">     4</i>
     <i name="TIME">      0.40000000</i>
    </separator>
   </separator>
   <separator name="electronic mixer" >
    <i name="AMIX">      0.40000000</i>
    <i name="BMIX">      1.00000000</i>
    <i name="AMIN">      0.10000000</i>
    <i name="AMIX_MAG">      1.60000000</i>
    <i name="BMIX_MAG">      1.00000000</i>
    <separator name="electronic mixer details" >
     <i type="int" name="IMIX">     4</i>
     <i type="logical" name="MIXFIRST"> F  </i>
     <i type="int" name="MAXMIX">   -45</i>
     <i name="WC">    100.00000000</i>
     <i type="int" name="INIMIX">     1</i>
     <i type="int" name="MIXPRE">     1</i>
     <i type="int" name="MREMOVE">     5</i>
    </separator>
   </separator>
   <separator name="electronic dipolcorrection" >
    <i type="logical" name="LDIPOL"> F  </i>
    <i type="logical" name="LMONO"> F  </i>
    <i type="int" name="IDIPOL">     0</i>
    <i name="EPSILON">      1.00000000</i>
    <v name="DIPOL">   -100.00000000   -100.00000000   -100.00000000</v>
    <i name="EFIELD">      0.00000000</i>
   </separator>
  </separator>
  <separator name="grids" >
   <i type="int" name="NGX">    70</i>
   <i type="int" name="NGY">    70</i>
   <i type="int" name="NGZ">    70</i>
   <i type="int" name="NGXF">   140</i>
   <i type="int" name="NGYF">   140</i>
   <i type="int" name="NGZF">   140</i>
   <i type="logical" name="ADDGRID"> F  </i>
  </separator>
  <separator name="ionic" >
   <i type="int" name="NSW">     0</i>
   <i type="int" name="IBRION">    -1</i>
   <i type="int" name="MDALGO">     0</i>
   <i type="int" name="ISIF">     2</i>
   <i name="PSTRESS">      0.00000000</i>
   <i name="EDIFFG">      0.00000100</i>
   <i type="int" name="NFREE">     0</i>
   <i name="POTIM">      0.50000000</i>
   <i name="SMASS">     -3.00000000</i>
   <i name="SCALEE">      1.00000000</i>
  </separator>
  <separator name="ionic md" >
   <i name="TEBEG">      0.00010000</i>
   <i name="TEEND">      0.00010000</i>
   <i type="int" name="NBLOCK">     1</i>
   <i type="int" name="KBLOCK">     1</i>
   <i type="int" name="NPACO">   256</i>
   <i name="APACO">     16.00000000</i>
  </separator>
  <separator name="symmetry" >
   <i type="int" name="ISYM">     2</i>
   <i name="SYMPREC">      0.00001000</i>
  </separator>
  <separator name="dos" >
   <i type="int" name="LORBIT">     0</i>
   <v name="RWIGS">     -1.00000000</v>
   <i type="int" name="NEDOS">   301</i>
   <i name="EMIN">     10.00000000</i>
   <i name="EMAX">    -10.00000000</i>
   <i name="EFERMI">      0.00000000</i>
  </separator>
  <separator name="writing" >
   <i type="int" name="NWRITE">     2</i>
   <i type="logical" name="LWAVE"> F  </i>
   <i type="logical" name="LDOWNSAMPLE"> F  </i>
   <i type="logical" name="LCHARG"> F  </i>
   <i type="logical" name="LPARD"> F  </i>
   <i type="logical" name="LVTOT"> F  </i>
   <i type="logical" name="LVHAR"> F  </i>
   <i type="logical" name="LELF"> F  </i>
   <i type="logical" name="LOPTICS"> F  </i>
   <v name="STM">      0.00000000      0.00000000      0.00000000      0.00000000      0.00000000      0.00000000      0.00000000</v>
  </separator>
  <separator name="performance" >
   <i type="int" name="NPAR">     1</i>
   <i type="int" name="NSIM">     4</i>
   <i type="int" name="NBLK">    -1</i>
   <i type="logical" name="LPLANE"> T  </i>
   <i type="logical" name="LSCALAPACK"> T  </i>
   <i type="logical" name="LSCAAWARE"> F  </i>
   <i type="logical" name="LSCALU"> F  </i>
   <i type="logical" name="LASYNC"> F  </i>
   <i type="logical" name="LORBITALREAL"> F  </i>
  </separator>
  <separator name="miscellaneous" >
   <i type="int" name="IDIOT">     3</i>
   <i type="int" name="PHON_NSTRUCT">    -1</i>
   <i type="logical" name="LMUSIC"> F  </i>
   <v name="POMASS">     16.00000000</v>
   <v name="DARWINR">      0.00000000</v>
   <v name="DARWINV">      1.00000000</v>
   <i type="logical" name="LCORR"> T  </i>
  </separator>
  <i type="logical" name="GGA_COMPAT"> T  </i>
  <i type="logical" name="LBERRY"> F  </i>
  <i type="int" name="ICORELEVEL">     0</i>
  <i type="logical" name="LDAU"> F  </i>
  <i type="int" name="I_CONSTRAINED_M">     0</i>
  <separator name="electronic exchange-correlation" >
   <i type="string" name="GGA">--</i>
   <i type="int" name="VOSKOWN">     0</i>
   <i type="logical" name="LHFCALC"> F  </i>
   <i type="string" name="PRECFOCK"></i>
   <i type="logical" name="LSYMGRAD"> F  </i>
   <i type="logical" name="LHFONE"> F  </i>
   <i type="logical" name="LRHFCALC"> F  </i>
   <i type="logical" name="LTHOMAS"> F  </i>
   <i type="logical" name="LMODELHF"> F  </i>
   <i type="logical" name="LFOCKACE"> F  </i>
   <i name="ENCUT4O">     -1.00000000</i>
   <i type="int" name="EXXOEP">     0</i>
   <i type="int" name="FOURORBIT">     0</i>
   <i name="AEXX">      0.00000000</i>
   <i name="HFALPHA">      0.00000000</i>
   <i name="MCALPHA">      0.00000000</i>
   <i name="ALDAX">      1.00000000</i>
   <i name="AGGAX">      1.00000000</i>
   <i name="ALDAC">      1.00000000</i>
   <i name="AGGAC">      1.00000000</i>
   <i type="int" name="NKREDX">     1</i>
   <i type="int" name="NKREDY">     1</i>
   <i type="int" name="NKREDZ">     1</i>
   <i type="logical" name="SHIFTRED"> F  </i>
   <i type="logical" name="ODDONLY"> F  </i>
   <i type="logical" name="EVENONLY"> F  </i>
   <i type="int" name="LMAXFOCK">     0</i>
   <i type="int" name="NMAXFOCKAE">     0</i>
   <i type="logical" name="LFOCKAEDFT"> F  </i>
   <i name="HFSCREEN">      0.00000000</i>
   <i name="HFSCREENC">      0.00000000</i>
   <i type="int" name="NBANDSGWLOW">     0</i>
  </separator>
  <separator name="vdW DFT" >
   <i type="logical" name="LUSE_VDW"> F  </i>
   <i name="Zab_VDW">     -0.84910000</i>
   <i name="PARAM1">      0.12340000</i>
   <i name="PARAM2">      1.00000000</i>
   <i name="PARAM3">      0.00000000</i>
  </separator>
  <separator name="model GW" >
   <i type="int" name="MODEL_GW">     0</i>
   <i name="MODEL_EPS0">    457.29375000</i>
   <i name="MODEL_ALPHA">      1.00000000</i>
  </separator>
  <separator name="linear response parameters" >
   <i type="logical" name="LEPSILON"> F  </i>
   <i type="logical" name="LRPA"> F  </i>
   <i type="logical" name="LNABLA"> F  </i>
   <i type="logical" name="LVEL"> F  </i>
   <i type="int" name="KINTER">     0</i>
   <i name="CSHIFT">      0.10000000</i>
   <i name="OMEGAMAX">     -1.00000000</i>
   <i name="DEG_THRESHOLD">      0.00200000</i>
   <i name="RTIME">     -0.10000000</i>
   <i name="WPLASMAI">      0.00000000</i>
   <v name="DFIELD">      0.00000000      0.00000000      0.00000000</v>
   <v name="WPLASMA">      0.00000000      0.00000000      0.00000000      0.00000000      0.00000000      0.00000000      0.00000000      0.00000000      0.00000000</v>
  </separator>
  <separator name="orbital magnetization" >
   <i type="logical" name="NUCIND"> F  </i>
   <v name="MAGPOS">      0.00000000      0.00000000      0.00000000</v>
   <i type="logical" name="LNICSALL"> T  </i>
   <i type="logical" name="ORBITALMAG"> F  </i>
   <i type="logical" name="LMAGBLOCH"> F  </i>
   <i type="logical" name="LCHIMAG"> F  </i>
   <i type="logical" name="LGAUGE"> T  </i>
   <i type="int" name="MAGATOM">     0</i>
   <v name="MAGDIPOL">      0.00000000      0.00000000      0.00000000</v>
   <v name="AVECCONST">      0.00000000      0.00000000      0.00000000</v>
  </separator>
  <separator name="response functions" >
   <i type="logical" name="LFINITE_TEMPERATURE"> F  </i>
   <i type="logical" name="LADDER"> F  </i>
   <i type="logical" name="LRPAFORCE"> F  </i>
   <i type="logical" name="LFXC"> F  </i>
   <i type="logical" name="LHARTREE"> T  </i>
   <i type="int" name="IBSE">     0</i>
   <v type="int" name="KPOINT">    -1     0     0     0</v>
   <i type="logical" name="LTCTC"> F  </i>
   <i type="logical" name="LTCTE"> F  </i>
   <i type="logical" name="LTETE"> F  </i>
   <i type="logical" name="LTRIPLET"> F  </i>
   <i type="logical" name="LFXCEPS"> F  </i>
   <i type="logical" name="LFXHEG"> F  </i>
   <i type="int" name="NATURALO">     2</i>
   <i type="logical" name="LHOLEGF"> F  </i>
   <i type="logical" name="L2ORDER"> F  </i>
   <i type="logical" name="LDMP1"> F  </i>
   <i type="logical" name="LMP2LT"> F  </i>
   <i type="logical" name="LSMP2LT"> F  </i>
   <i type="logical" name="LGWLF"> F  </i>
   <i name="ENCUTGW">     -2.00000000</i>
   <i name="ENCUTGWSOFT">     -2.00000000</i>
   <i name="ENCUTLF">     -1.00000000</i>
   <i type="logical" name="LESF_SPLINES"> F  </i>
   <i type="int" name="LMAXMP2">    -1</i>
   <i name="SCISSOR">      0.00000000</i>
   <i type="int" name="NOMEGA">     0</i>
   <i type="int" name="NOMEGAR">     0</i>
   <i type="int" name="NBANDSGW">    -1</i>
   <i type="int" name="NBANDSO">    -1</i>
   <i type="int" name="NBANDSV">    -1</i>
   <i type="int" name="NELM">     1</i>
   <i type="int" name="NELMHF">     1</i>
   <i type="int" name="DIM">     3</i>
   <i type="int" name="IESPILON">     4</i>
   <i type="int" name="ANTIRES">     0</i>
   <i name="OMEGAMAX">    -30.00000000</i>
   <i name="OMEGAMIN">    -30.00000000</i>
   <i name="OMEGATL">   -200.00000000</i>
   <i type="int" name="OMEGAGRID">     0</i>
   <i name="CSHIFT">     -0.10000000</i>
   <i type="logical" name="LSELFENERGY"> F  </i>
   <i type="logical" name="LSPECTRAL"> F  </i>
   <i type="logical" name="LSPECTRALGW"> F  </i>
   <i type="logical" name="LSINGLES"> F  </i>
   <i type="logical" name="LFERMIGW"> F  </i>
   <i type="logical" name="ODDONLYGW"> F  </i>
   <i type="logical" name="EVENONLYGW"> F  </i>
   <i type="int" name="NKREDLFX">     1</i>
   <i type="int" name="NKREDLFY">     1</i>
   <i type="int" name="NKREDLFZ">     1</i>
   <i type="int" name="MAXMEM">  2800</i>
   <i type="int" name="TELESCOPE">     0</i>
   <i type="int" name="NTAUPAR">    -1</i>
   <i type="int" name="NOMEGAPAR">    -1</i>
   <i name="DAMP_NEWTON">      0.80000001</i>
   <i name="LAMBDA">      1.00000000</i>
  </separator>
  <separator name="External order field" >
   <i name="OFIELD_KAPPA">      0.00000000</i>
   <v name="OFIELD_K">      0.00000000      0.00000000      0.00000000</v>
   <i name="OFIELD_Q6_NEAR">      0.00000000</i>
   <i name="OFIELD_Q6_FAR">      0.00000000</i>
   <i name="OFIELD_A">      0.00000000</i>
  </separator>
  <separator name="solvation model" >
   <i type="logical" name="LSOL"> F  </i>
  </separator>
 </parameters>
 <atominfo>
  <atoms>       4 </atoms>
  <types>       1 </types>
  <array name="atoms" >
   <dimension dim="1">ion</dimension>
   <field type="string">element</field>
   <field type="int">atomtype</field>
   <set>
    <rc><c>O </c><c>   1</c></rc>
    <rc><c>O </c><c>   1</c></rc>
    <rc><c>O </c><c>   1</c></rc>
    <rc><c>O </c><c>   1</c></rc>
   </set>
  </array>
  <array name="atomtypes" >
   <dimension dim="1">type</dimension>
   <field type="int">atomspertype</field>
   <field type="string">element</field>
   <field>mass</field>
   <field>valence</field>
   <field type="string">pseudopotential</field>
   <set>
    <rc><c>   4</c><c>O </c><c>     16.00000000</c><c>      6.00000000</c><c>  PAW O_GW 19Mar2012                    </c></rc>
   </set>
  </array>
 </atominfo>
 <structure name="initialpos" >
  <crystal>
   <varray name="basis" >
    <v>      14.50000000       0.00000000       0.00000000 </v>
    <v>       0.00000000      14.50000000       0.00000000 </v>
    <v>       0.00000000       0.00000000      14.50000000 </v>
   </varray>
   <i name="volume">   3048.62500000 </i>
   <varray name="rec_basis" >
    <v>       0.06896552       0.00000000       0.00000000 </v>
    <v>       0.00000000       0.06896552       0.00000000 </v>
    <v>       0.00000000       0.00000000       0.06896552 </v>
   </varray>
  </crystal>
  <varray name="positions" >
   <v>       0.00000000       0.00000000       0.00000000 </v>
   <v>       0.08275862       0.00000000       0.00000000 </v>
   <v>       0.03448276       0.95862069       0.10344828 </v>
   <v>       0.03448276       0.04137931       0.10344828 </v>
  </varray>
 </structure>
 <calculation>
  <scstep>
   <time name="dav">    0.08    0.08</time>
   <time name="total">    0.13    0.16</time>
   <energy>
    <i name="alphaZ">      0.35861207 </i>
    <i name="ewald">   1259.69217248 </i>
    <i name="hartreedc">  -2701.72518511 </i>
    <i name="XCdc">    104.54783169 </i>
    <i name="pawpsdc">   1396.60603497 </i>
    <i name="pawaedc">  -1393.39258355 </i>
    <i name="eentropy">     -0.00000000 </i>
    <i name="bandstr">   -187.52065970 </i>
    <i name="atom">   1727.95004229 </i>
    <i name="e_fr_energy">    206.51626514 </i>
    <i name="e_wo_entrp">    206.51626514 </i>
    <i name="e_0_energy">    206.51626514 </i>
   </energy>
  </scstep>
  <scstep>
   <time name="dav">    0.06    0.06</time>
   <time name="total">    0.06    0.06</time>
   <energy>
    <i name="e_fr_energy">     71.64796949 </i>
    <i name="e_wo_entrp">     71.69154000 </i>
    <i name="e_0_energy">     71.66975474 </i>
   </energy>
  </scstep>
  <scstep>
   <time name="dav">    0.05    0.05</time>
   <time name="total">    0.05    0.05</time>
   <energy>
    <i name="e_fr_energy">      1.59275673 </i>
    <i name="e_wo_entrp">      1.59275673 </i>
    <i name="e_0_energy">      1.59275673 </i>
   </energy>
  </scstep>
  <scstep>
   <time name="dav">    0.04    0.04</time>
   <time name="total">    0.04    0.04</time>
   <energy>
    <i name="e_fr_energy">    -12.27066520 </i>
    <i name="e_wo_entrp">    -12.25864737 </i>
    <i name="e_0_energy">    -12.26465629 </i>
   </energy>
  </scstep>
  <scstep>
   <time name="dav">    0.04    0.04</time>
   <time name="total">    0.16    0.17</time>
   <energy>
    <i name="e_fr_energy">    -12.50605309 </i>
    <i name="e_wo_entrp">    -12.47606217 </i>
    <i name="e_0_energy">    -12.49105763 </i>
   </energy>
  </scstep>
  <scstep>
   <time name="dav">    0.04    0.04</time>
   <time name="total">    0.20    0.20</time>
   <energy>
    <i name="e_fr_energy">    -15.10196226 </i>
    <i name="e_wo_entrp">    -15.10196226 </i>
    <i name="e_0_energy">    -15.10196226 </i>
   </energy>
  </scstep>
  <scstep>
   <time name="dav">    0.04    0.04</time>
   <time name="total">    0.20    0.20</time>
   <energy>
    <i name="e_fr_energy">    -34.62973183 </i>
    <i name="e_wo_entrp">    -34.62973183 </i>
    <i name="e_0_energy">    -34.62973183 </i>
   </energy>
  </scstep>
  <scstep>
   <time name="dav">    0.04    0.04</time>
   <time name="total">    0.20    0.20</time>
   <energy>
    <i name="e_fr_energy">    -20.88317120 </i>
    <i name="e_wo_entrp">    -20.88317120 </i>
    <i name="e_0_energy">    -20.88317120 </i>
   </energy>
  </scstep>
  <scstep>
   <time name="dav">    0.05    0.05</time>
   <time name="total">    0.21    0.21</time>
   <energy>
    <i name="e_fr_energy">    -11.66236027 </i>
    <i name="e_wo_entrp">    -11.66235136 </i>
    <i name="e_0_energy">    -11.66235581 </i>
   </energy>
  </scstep>
  <scstep>
   <time name="dav">    0.03    0.03</time>
   <time name="total">    0.19    0.19</time>
   <energy>
    <i name="e_fr_energy">    -12.10144314 </i>
    <i name="e_wo_entrp">    -12.10144314 </i>
    <i name="e_0_energy">    -12.10144314 </i>
   </energy>
  </scstep>
  <scstep>
   <time name="dav">    0.03    0.03</time>
   <time name="total">    0.20    0.20</time>
   <energy>
    <i name="e_fr_energy">    -11.71914923 </i>
    <i name="e_wo_entrp">    -11.71641409 </i>
    <i name="e_0_energy">    -11.71778166 </i>
   </energy>
  </scstep>
  <scstep>
   <time name="dav">    0.04    0.04</time>
   <time name="total">    0.21    0.21</time>
   <energy>
    <i name="e_fr_energy">    -12.20990983 </i>
    <i name="e_wo_entrp">    -12.20990983 </i>
    <i name="e_0_energy">    -12.20990983 </i>
   </energy>
  </scstep>
  <scstep>
   <time name="dav">    0.03    0.03</time>
   <time name="total">    0.22    0.22</time>
   <energy>
    <i name="e_fr_energy">    -11.86650967 </i>
    <i name="e_wo_entrp">    -11.86650828 </i>
    <i name="e_0_energy">    -11.86650898 </i>
   </energy>
  </scstep>
  <scstep>
   <time name="dav">    0.03    0.03</time>
   <time name="total">    0.22    0.22</time>
   <energy>
    <i name="e_fr_energy">    -11.69041881 </i>
    <i name="e_wo_entrp">    -11.69041863 </i>
    <i name="e_0_energy">    -11.69041872 </i>
   </energy>
  </scstep>
  <scstep>
   <time name="dav">    0.04    0.04</time>
   <time name="total">    0.22    0.22</time>
   <energy>
    <i name="e_fr_energy">    -11.57200484 </i>
    <i name="e_wo_entrp">    -11.57196477 </i>
    <i name="e_0_energy">    -11.57198480 </i>
   </energy>
  </scstep>
  <scstep>
   <time name="dav">    0.04    0.04</time>
   <time name="total">    0.22    0.22</time>
   <energy>
    <i name="e_fr_energy">    -11.80935699 </i>
    <i name="e_wo_entrp">    -11.80935699 </i>
    <i name="e_0_energy">    -11.80935699 </i>
   </energy>
  </scstep>
  <scstep>
   <time name="dav">    0.04    0.04</time>
   <time name="total">    0.22    0.22</time>
   <energy>
    <i name="e_fr_energy">    -13.28216406 </i>
    <i name="e_wo_entrp">    -13.28216406 </i>
    <i name="e_0_energy">    -13.28216406 </i>
   </energy>
  </scstep>
  <scstep>
   <time name="dav">    0.03    0.03</time>
   <time name="total">    0.22    0.22</time>
   <energy>
    <i name="e_fr_energy">    -12.74995074 </i>
    <i name="e_wo_entrp">    -12.74995074 </i>
    <i name="e_0_energy">    -12.74995074 </i>
   </energy>
  </scstep>
  <scstep>
   <time name="dav">    0.04    0.04</time>
   <time name="total">    0.23    0.23</time>
   <energy>
    <i name="e_fr_energy">    -12.42025369 </i>
    <i name="e_wo_entrp">    -12.42025369 </i>
    <i name="e_0_energy">    -12.42025369 </i>
   </energy>
  </scstep>
  <scstep>
   <time name="dav">    0.04    0.04</time>
   <time name="total">    0.23    0.23</time>
   <energy>
    <i name="e_fr_energy">    -11.67965580 </i>
    <i name="e_wo_entrp">    -11.67962947 </i>
    <i name="e_0_energy">    -11.67964263 </i>
   </energy>
  </scstep>
  <scstep>
   <time name="dav">    0.04    0.04</time>
   <time name="total">    0.24    0.24</time>
   <energy>
    <i name="e_fr_energy">    -11.60619594 </i>
    <i name="e_wo_entrp">    -11.60563289 </i>
    <i name="e_0_energy">    -11.60591441 </i>
   </energy>
  </scstep>
  <scstep>
   <time name="dav">    0.04    0.04</time>
   <time name="total">    0.24    0.24</time>
   <energy>
    <i name="e_fr_energy">    -12.18025000 </i>
    <i name="e_wo_entrp">    -12.18025000 </i>
    <i name="e_0_energy">    -12.18025000 </i>
   </energy>
  </scstep>
  <scstep>
   <time name="dav">    0.04    0.04</time>
   <time name="total">    0.24    0.24</time>
   <energy>
    <i name="e_fr_energy">    -11.80878824 </i>
    <i name="e_wo_entrp">    -11.80509177 </i>
    <i name="e_0_energy">    -11.80694000 </i>
   </energy>
  </scstep>
  <scstep>
   <time name="dav">    0.03    0.03</time>
   <time name="total">    0.24    0.24</time>
   <energy>
    <i name="e_fr_energy">    -11.81189710 </i>
    <i name="e_wo_entrp">    -11.80640102 </i>
    <i name="e_0_energy">    -11.80914906 </i>
   </energy>
  </scstep>
  <scstep>
   <time name="dav">    0.03    0.03</time>
   <time name="total">    0.25    0.25</time>
   <energy>
    <i name="e_fr_energy">    -11.64233894 </i>
    <i name="e_wo_entrp">    -11.58812449 </i>
    <i name="e_0_energy">    -11.61523172 </i>
   </energy>
  </scstep>
  <scstep>
   <time name="dav">    0.03    0.03</time>
   <time name="total">    0.25    0.25</time>
   <energy>
    <i name="e_fr_energy">    -11.88288619 </i>
    <i name="e_wo_entrp">    -11.83306468 </i>
    <i name="e_0_energy">    -11.85797543 </i>
   </energy>
  </scstep>
  <scstep>
   <time name="dav">    0.03    0.03</time>
   <time name="total">    0.26    0.26</time>
   <energy>
    <i name="e_fr_energy">    -11.80792069 </i>
    <i name="e_wo_entrp">    -11.76475864 </i>
    <i name="e_0_energy">    -11.78633966 </i>
   </energy>
  </scstep>
  <scstep>
   <time name="dav">    0.03    0.03</time>
   <time name="total">    0.26    0.26</time>
   <energy>
    <i name="e_fr_energy">    -11.81527971 </i>
    <i name="e_wo_entrp">    -11.77589740 </i>
    <i name="e_0_energy">    -11.79558856 </i>
   </energy>
  </scstep>
  <scstep>
   <time name="dav">    0.03    0.03</time>
   <time name="total">    0.27    0.27</time>
   <energy>
    <i name="e_fr_energy">    -11.79862165 </i>
    <i name="e_wo_entrp">    -11.77194448 </i>
    <i name="e_0_energy">    -11.78528307 </i>
   </energy>
  </scstep>
  <scstep>
   <time name="dav">    0.03    0.03</time>
   <time name="total">    0.27    0.27</time>
   <energy>
    <i name="e_fr_energy">    -11.73518533 </i>
    <i name="e_wo_entrp">    -11.68923031 </i>
    <i name="e_0_energy">    -11.71220782 </i>
   </energy>
  </scstep>
  <scstep>
   <time name="dav">    0.03    0.03</time>
   <time name="total">    0.27    0.27</time>
   <energy>
    <i name="e_fr_energy">    -11.79974249 </i>
    <i name="e_wo_entrp">    -11.74411894 </i>
    <i name="e_0_energy">    -11.77193071 </i>
   </energy>
  </scstep>
  <scstep>
   <time name="dav">    0.03    0.03</time>
   <time name="total">    0.27    0.28</time>
   <energy>
    <i name="e_fr_energy">    -11.87776673 </i>
    <i name="e_wo_entrp">    -11.82651698 </i>
    <i name="e_0_energy">    -11.85214186 </i>
   </energy>
  </scstep>
  <scstep>
   <time name="dav">    0.03    0.03</time>
   <time name="total">    0.28    0.28</time>
   <energy>
    <i name="e_fr_energy">    -11.82279430 </i>
    <i name="e_wo_entrp">    -11.77040525 </i>
    <i name="e_0_energy">    -11.79659977 </i>
   </energy>
  </scstep>
  <scstep>
   <time name="dav">    0.03    0.03</time>
   <time name="total">    0.30    0.30</time>
   <energy>
    <i name="e_fr_energy">    -11.82878092 </i>
    <i name="e_wo_entrp">    -11.77292012 </i>
    <i name="e_0_energy">    -11.80085052 </i>
   </energy>
  </scstep>
  <scstep>
   <time name="dav">    0.03    0.03</time>
   <time name="total">    0.29    0.29</time>
   <energy>
    <i name="e_fr_energy">    -11.87531315 </i>
    <i name="e_wo_entrp">    -11.81911442 </i>
    <i name="e_0_energy">    -11.84721378 </i>
   </energy>
  </scstep>
  <scstep>
   <time name="dav">    0.03    0.03</time>
   <time name="total">    0.31    0.31</time>
   <energy>
    <i name="e_fr_energy">    -11.86718793 </i>
    <i name="e_wo_entrp">    -11.81323036 </i>
    <i name="e_0_energy">    -11.84020914 </i>
   </energy>
  </scstep>
  <scstep>
   <time name="dav">    0.03    0.03</time>
   <time name="total">    0.31    0.31</time>
   <energy>
    <i name="e_fr_energy">    -11.82216832 </i>
    <i name="e_wo_entrp">    -11.76581294 </i>
    <i name="e_0_energy">    -11.79399063 </i>
   </energy>
  </scstep>
  <scstep>
   <time name="dav">    0.03    0.03</time>
   <time name="total">    0.32    0.32</time>
   <energy>
    <i name="e_fr_energy">    -11.86043500 </i>
    <i name="e_wo_entrp">    -11.80497341 </i>
    <i name="e_0_energy">    -11.83270421 </i>
   </energy>
  </scstep>
  <scstep>
   <time name="dav">    0.03    0.03</time>
   <time name="total">    0.32    0.32</time>
   <energy>
    <i name="e_fr_energy">    -11.84229242 </i>
    <i name="e_wo_entrp">    -11.78666231 </i>
    <i name="e_0_energy">    -11.81447736 </i>
   </energy>
  </scstep>
  <scstep>
   <time name="dav">    0.04    0.04</time>
   <time name="total">    0.33    0.33</time>
   <energy>
    <i name="e_fr_energy">    -11.84201791 </i>
    <i name="e_wo_entrp">    -11.78571126 </i>
    <i name="e_0_energy">    -11.81386458 </i>
   </energy>
  </scstep>
  <scstep>
   <time name="dav">    0.03    0.03</time>
   <time name="total">    0.34    0.34</time>
   <energy>
    <i name="e_fr_energy">    -11.86127715 </i>
    <i name="e_wo_entrp">    -11.80513152 </i>
    <i name="e_0_energy">    -11.83320433 </i>
   </energy>
  </scstep>
  <scstep>
   <time name="dav">    0.04    0.04</time>
   <time name="total">    0.36    0.36</time>
   <energy>
    <i name="e_fr_energy">    -11.85956028 </i>
    <i name="e_wo_entrp">    -11.80317427 </i>
    <i name="e_0_energy">    -11.83136727 </i>
   </energy>
  </scstep>
  <scstep>
   <time name="dav">    0.03    0.03</time>
   <time name="total">    0.36    0.36</time>
   <energy>
    <i name="e_fr_energy">    -11.87478305 </i>
    <i name="e_wo_entrp">    -11.81836558 </i>
    <i name="e_0_energy">    -11.84657431 </i>
   </energy>
  </scstep>
  <scstep>
   <time name="dav">    0.04    0.04</time>
   <time name="total">    0.38    0.38</time>
   <energy>
    <i name="e_fr_energy">    -11.87480608 </i>
    <i name="e_wo_entrp">    -11.81842924 </i>
    <i name="e_0_energy">    -11.84661766 </i>
   </energy>
  </scstep>
  <scstep>
   <time name="dav">    0.03    0.03</time>
   <time name="total">    0.37    0.37</time>
   <energy>
    <i name="e_fr_energy">    -11.87555744 </i>
    <i name="e_wo_entrp">    -11.81927476 </i>
    <i name="e_0_energy">    -11.84741610 </i>
   </energy>
  </scstep>
  <scstep>
   <time name="dav">    0.03    0.03</time>
   <time name="total">    0.39    0.39</time>
   <energy>
    <i name="e_fr_energy">    -11.87472831 </i>
    <i name="e_wo_entrp">    -11.81840039 </i>
    <i name="e_0_energy">    -11.84656435 </i>
   </energy>
  </scstep>
  <scstep>
   <time name="dav">    0.03    0.03</time>
   <time name="total">    0.40    0.40</time>
   <energy>
    <i name="e_fr_energy">    -11.87496453 </i>
    <i name="e_wo_entrp">    -11.81869743 </i>
    <i name="e_0_energy">    -11.84683098 </i>
   </energy>
  </scstep>
  <scstep>
   <time name="dav">    0.03    0.03</time>
   <time name="total">    0.41    0.41</time>
   <energy>
    <i name="e_fr_energy">    -11.87420687 </i>
    <i name="e_wo_entrp">    -11.81787975 </i>
    <i name="e_0_energy">    -11.84604331 </i>
   </energy>
  </scstep>
  <scstep>
   <time name="dav">    0.03    0.03</time>
   <time name="total">    0.43    0.43</time>
   <energy>
    <i name="e_fr_energy">    -11.87490294 </i>
    <i name="e_wo_entrp">    -11.81858828 </i>
    <i name="e_0_energy">    -11.84674561 </i>
   </energy>
  </scstep>
  <scstep>
   <time name="dav">    0.03    0.03</time>
   <time name="total">    0.40    0.40</time>
   <energy>
    <i name="e_fr_energy">    -11.87488595 </i>
    <i name="e_wo_entrp">    -11.81852759 </i>
    <i name="e_0_energy">    -11.84670677 </i>
   </energy>
  </scstep>
  <scstep>
   <time name="dav">    0.03    0.03</time>
   <time name="total">    0.39    0.39</time>
   <energy>
    <i name="e_fr_energy">    -11.87535720 </i>
    <i name="e_wo_entrp">    -11.81898590 </i>
    <i name="e_0_energy">    -11.84717155 </i>
   </energy>
  </scstep>
  <scstep>
   <time name="dav">    0.03    0.03</time>
   <time name="total">    0.40    0.40</time>
   <energy>
    <i name="e_fr_energy">    -11.87549748 </i>
    <i name="e_wo_entrp">    -11.81912307 </i>
    <i name="e_0_energy">    -11.84731027 </i>
   </energy>
  </scstep>
  <scstep>
   <time name="dav">    0.03    0.03</time>
   <time name="total">    0.41    0.41</time>
   <energy>
    <i name="e_fr_energy">    -11.87552939 </i>
    <i name="e_wo_entrp">    -11.81917216 </i>
    <i name="e_0_energy">    -11.84735078 </i>
   </energy>
  </scstep>
  <scstep>
   <time name="dav">    0.03    0.03</time>
   <time name="total">    0.42    0.42</time>
   <energy>
    <i name="e_fr_energy">    -11.87545080 </i>
    <i name="e_wo_entrp">    -11.81909342 </i>
    <i name="e_0_energy">    -11.84727211 </i>
   </energy>
  </scstep>
  <scstep>
   <time name="dav">    0.03    0.03</time>
   <time name="total">    0.39    0.39</time>
   <energy>
    <i name="e_fr_energy">    -11.87543378 </i>
    <i name="e_wo_entrp">    -11.81906264 </i>
    <i name="e_0_energy">    -11.84724821 </i>
   </energy>
  </scstep>
  <scstep>
   <time name="dav">    0.03    0.03</time>
   <time name="total">    0.38    0.38</time>
   <energy>
    <i name="e_fr_energy">    -11.87550939 </i>
    <i name="e_wo_entrp">    -11.81914580 </i>
    <i name="e_0_energy">    -11.84732760 </i>
   </energy>
  </scstep>
  <scstep>
   <time name="dav">    0.03    0.03</time>
   <time name="total">    0.39    0.39</time>
   <energy>
    <i name="e_fr_energy">    -11.87548377 </i>
    <i name="e_wo_entrp">    -11.81911718 </i>
    <i name="e_0_energy">    -11.84730047 </i>
   </energy>
  </scstep>
  <scstep>
   <time name="dav">    0.03    0.03</time>
   <time name="total">    0.40    0.40</time>
   <energy>
    <i name="e_fr_energy">    -11.87549530 </i>
    <i name="e_wo_entrp">    -11.81912391 </i>
    <i name="e_0_energy">    -11.84730961 </i>
   </energy>
  </scstep>
  <scstep>
   <time name="dav">    0.03    0.03</time>
   <time name="total">    0.41    0.41</time>
   <energy>
    <i name="e_fr_energy">    -11.87552068 </i>
    <i name="e_wo_entrp">    -11.81914590 </i>
    <i name="e_0_energy">    -11.84733329 </i>
   </energy>
  </scstep>
  <scstep>
   <time name="dav">    0.03    0.03</time>
   <time name="total">    0.07    0.07</time>
   <energy>
    <i name="alphaZ">      0.35861207 </i>
    <i name="ewald">   1259.69217248 </i>
    <i name="hartreedc">  -2713.48540959 </i>
    <i name="XCdc">    105.82029233 </i>
    <i name="pawpsdc">   6099.05156696 </i>
    <i name="pawaedc">  -6096.27516273 </i>
    <i name="eentropy">     -0.05637751 </i>
    <i name="bandstr">   -394.93127349 </i>
    <i name="atom">   1727.95004229 </i>
    <i name="e_fr_energy">    -11.87553718 </i>
    <i name="e_wo_entrp">    -11.81915967 </i>
    <i name="e_0_energy">    -11.84734843 </i>
   </energy>
  </scstep>
  <structure>
   <crystal>
    <varray name="basis" >
     <v>      14.50000000       0.00000000       0.00000000 </v>
     <v>       0.00000000      14.50000000       0.00000000 </v>
     <v>       0.00000000       0.00000000      14.50000000 </v>
    </varray>
    <i name="volume">   3048.62500000 </i>
    <varray name="rec_basis" >
     <v>       0.06896552       0.00000000       0.00000000 </v>
     <v>       0.00000000       0.06896552       0.00000000 </v>
     <v>       0.00000000       0.00000000       0.06896552 </v>
    </varray>
   </crystal>
   <varray name="positions" >
    <v>       0.00000000       0.00000000       0.00000000 </v>
    <v>       0.08275862       0.00000000       0.00000000 </v>
    <v>       0.03448276       0.95862069       0.10344828 </v>
    <v>       0.03448276       0.04137931       0.10344828 </v>
   </varray>
  </structure>
  <varray name="forces" >
   <v>      -7.31061109       0.00000000      -9.35757116 </v>
   <v>       8.40830158       0.00000000      -8.87459869 </v>
   <v>      -0.54884525      -8.18016590       9.11608493 </v>
   <v>      -0.54884525       8.18016590       9.11608493 </v>
  </varray>
  <varray name="stress" >
   <v>      -2.90541621       0.00000000      -0.70074879 </v>
   <v>       0.00000000      -2.69988118       0.00000000 </v>
   <v>      -0.70074885       0.00000000       6.77581769 </v>
  </varray>
  <energy>
   <i name="e_fr_energy">    -11.91138305 </i>
   <i name="e_wo_entrp">    -11.85500554 </i>
   <i name="e_0_energy">    -11.88319429 </i>
  </energy>
  <time name="totalsc">   17.25   17.33</time>
  <eigenvalues>
   <array>
    <dimension dim="1">band</dimension>
    <dimension dim="2">kpoint</dimension>
    <dimension dim="3">spin</dimension>
    <field>eigene</field>
    <field>occ</field>
    <set>
     <set comment="spin 1">
      <set comment="kpoint 1">
       <r>  -35.7448    1.0000 </r>
       <r>  -31.2403    1.0000 </r>
       <r>  -20.5200    1.0000 </r>
       <r>  -20.4862    1.0000 </r>
       <r>  -15.8571    1.0000 </r>
       <r>  -13.6416    1.0000 </r>
       <r>  -13.2440    1.0000 </r>
       <r>  -13.2359    1.0000 </r>
       <r>  -12.9612    1.0000 </r>
       <r>   -8.0421    1.0000 </r>
       <r>   -7.3307    1.0000 </r>
       <r>   -5.1631    0.5153 </r>
       <r>   -5.1604    0.4847 </r>
       <r>   -4.5849    0.0000 </r>
       <r>   -0.2270    0.0000 </r>
       <r>    0.3838    0.0000 </r>
      </set>
     </set>
    </set>
   </array>
  </eigenvalues>
  <separator name="orbital magnetization" >
   <v name="MAGDIPOLOUT">      0.00000000      0.00000000      0.00000000</v>
  </separator>
  <dos>
   <i name="efermi">     -5.16175437 </i>
   <total>
    <array>
     <dimension dim="1">gridpoints</dimension>
     <dimension dim="2">spin</dimension>
     <field>energy</field>
     <field>total</field>
     <field>integrated</field>
     <set>
      <set comment="spin 1">
       <r>   -37.5512     0.0000     0.0000 </r>
       <r>   -37.4188     0.0000     0.0000 </r>
       <r>   -37.2863     0.0000     0.0000 </r>
       <r>   -37.1538     0.0000     0.0000 </r>
       <r>   -37.0214     0.0000     0.0000 </r>
       <r>   -36.8889     0.0000     0.0000 </r>
       <r>   -36.7564     0.0000     0.0000 </r>
       <r>   -36.6239     0.0000     0.0000 </r>
       <r>   -36.4915     0.0000     0.0000 </r>
       <r>   -36.3590     0.0000     0.0000 </r>
       <r>   -36.2265     0.0000     0.0000 </r>
       <r>   -36.0941     0.0000     0.0000 </r>
       <r>   -35.9616     0.0000     0.0000 </r>
       <r>   -35.8291     0.1291     0.0171 </r>
       <r>   -35.6966    13.6622     1.8270 </r>
       <r>   -35.5642     1.3063     2.0000 </r>
       <r>   -35.4317     0.0000     2.0000 </r>
       <r>   -35.2992     0.0000     2.0000 </r>
       <r>   -35.1668     0.0000     2.0000 </r>
       <r>   -35.0343     0.0000     2.0000 </r>
       <r>   -34.9018     0.0000     2.0000 </r>
       <r>   -34.7693     0.0000     2.0000 </r>
       <r>   -34.6369     0.0000     2.0000 </r>
       <r>   -34.5044     0.0000     2.0000 </r>
       <r>   -34.3719     0.0000     2.0000 </r>
       <r>   -34.2395     0.0000     2.0000 </r>
       <r>   -34.1070     0.0000     2.0000 </r>
       <r>   -33.9745     0.0000     2.0000 </r>
       <r>   -33.8420     0.0000     2.0000 </r>
       <r>   -33.7096     0.0000     2.0000 </r>
       <r>   -33.5771     0.0000     2.0000 </r>
       <r>   -33.4446     0.0000     2.0000 </r>
       <r>   -33.3122     0.0000     2.0000 </r>
       <r>   -33.1797     0.0000     2.0000 </r>
       <r>   -33.0472     0.0000     2.0000 </r>
       <r>   -32.9147     0.0000     2.0000 </r>
       <r>   -32.7823     0.0000     2.0000 </r>
       <r>   -32.6498     0.0000     2.0000 </r>
       <r>   -32.5173     0.0000     2.0000 </r>
       <r>   -32.3849     0.0000     2.0000 </r>
       <r>   -32.2524     0.0000     2.0000 </r>
       <r>   -32.1199     0.0000     2.0000 </r>
       <r>   -31.9874     0.0000     2.0000 </r>
       <r>   -31.8550     0.0000     2.0000 </r>
       <r>   -31.7225     0.0000     2.0000 </r>
       <r>   -31.5900     0.0000     2.0000 </r>
       <r>   -31.4576     0.0000     2.0000 </r>
       <r>   -31.3251     0.1245     2.0165 </r>
       <r>   -31.1926    13.6347     3.8227 </r>
       <r>   -31.0601     1.3383     4.0000 </r>
       <r>   -30.9277     0.0000     4.0000 </r>
       <r>   -30.7952     0.0000     4.0000 </r>
       <r>   -30.6627     0.0000     4.0000 </r>
       <r>   -30.5303     0.0000     4.0000 </r>
       <r>   -30.3978     0.0000     4.0000 </r>
       <r>   -30.2653     0.0000     4.0000 </r>
       <r>   -30.1328     0.0000     4.0000 </r>
       <r>   -30.0004     0.0000     4.0000 </r>
       <r>   -29.8679     0.0000     4.0000 </r>
       <r>   -29.7354     0.0000     4.0000 </r>
       <r>   -29.6030     0.0000     4.0000 </r>
       <r>   -29.4705     0.0000     4.0000 </r>
       <r>   -29.3380     0.0000     4.0000 </r>
       <r>   -29.2055     0.0000     4.0000 </r>
       <r>   -29.0731     0.0000     4.0000 </r>
       <r>   -28.9406     0.0000     4.0000 </r>
       <r>   -28.8081     0.0000     4.0000 </r>
       <r>   -28.6757     0.0000     4.0000 </r>
       <r>   -28.5432     0.0000     4.0000 </r>
       <r>   -28.4107     0.0000     4.0000 </r>
       <r>   -28.2782     0.0000     4.0000 </r>
       <r>   -28.1458     0.0000     4.0000 </r>
       <r>   -28.0133     0.0000     4.0000 </r>
       <r>   -27.8808     0.0000     4.0000 </r>
       <r>   -27.7484     0.0000     4.0000 </r>
       <r>   -27.6159     0.0000     4.0000 </r>
       <r>   -27.4834     0.0000     4.0000 </r>
       <r>   -27.3509     0.0000     4.0000 </r>
       <r>   -27.2185     0.0000     4.0000 </r>
       <r>   -27.0860     0.0000     4.0000 </r>
       <r>   -26.9535     0.0000     4.0000 </r>
       <r>   -26.8211     0.0000     4.0000 </r>
       <r>   -26.6886     0.0000     4.0000 </r>
       <r>   -26.5561     0.0000     4.0000 </r>
       <r>   -26.4236     0.0000     4.0000 </r>
       <r>   -26.2912     0.0000     4.0000 </r>
       <r>   -26.1587     0.0000     4.0000 </r>
       <r>   -26.0262     0.0000     4.0000 </r>
       <r>   -25.8938     0.0000     4.0000 </r>
       <r>   -25.7613     0.0000     4.0000 </r>
       <r>   -25.6288     0.0000     4.0000 </r>
       <r>   -25.4963     0.0000     4.0000 </r>
       <r>   -25.3639     0.0000     4.0000 </r>
       <r>   -25.2314     0.0000     4.0000 </r>
       <r>   -25.0989     0.0000     4.0000 </r>
       <r>   -24.9665     0.0000     4.0000 </r>
       <r>   -24.8340     0.0000     4.0000 </r>
       <r>   -24.7015     0.0000     4.0000 </r>
       <r>   -24.5690     0.0000     4.0000 </r>
       <r>   -24.4366     0.0000     4.0000 </r>
       <r>   -24.3041     0.0000     4.0000 </r>
       <r>   -24.1716     0.0000     4.0000 </r>
       <r>   -24.0392     0.0000     4.0000 </r>
       <r>   -23.9067     0.0000     4.0000 </r>
       <r>   -23.7742     0.0000     4.0000 </r>
       <r>   -23.6417     0.0000     4.0000 </r>
       <r>   -23.5093     0.0000     4.0000 </r>
       <r>   -23.3768     0.0000     4.0000 </r>
       <r>   -23.2443     0.0000     4.0000 </r>
       <r>   -23.1119     0.0000     4.0000 </r>
       <r>   -22.9794     0.0000     4.0000 </r>
       <r>   -22.8469     0.0000     4.0000 </r>
       <r>   -22.7144     0.0000     4.0000 </r>
       <r>   -22.5820     0.0000     4.0000 </r>
       <r>   -22.4495     0.0000     4.0000 </r>
       <r>   -22.3170     0.0000     4.0000 </r>
       <r>   -22.1846     0.0000     4.0000 </r>
       <r>   -22.0521     0.0000     4.0000 </r>
       <r>   -21.9196     0.0000     4.0000 </r>
       <r>   -21.7871     0.0000     4.0000 </r>
       <r>   -21.6547     0.0000     4.0000 </r>
       <r>   -21.5222     0.0000     4.0000 </r>
       <r>   -21.3897     0.0000     4.0000 </r>
       <r>   -21.2573     0.0000     4.0000 </r>
       <r>   -21.1248     0.0000     4.0000 </r>
       <r>   -20.9923     0.0000     4.0000 </r>
       <r>   -20.8598     0.0000     4.0000 </r>
       <r>   -20.7274     0.0000     4.0000 </r>
       <r>   -20.5949     0.2728     4.0361 </r>
       <r>   -20.4624    25.3512     7.3944 </r>
       <r>   -20.3300     4.5711     8.0000 </r>
       <r>   -20.1975     0.0001     8.0000 </r>
       <r>   -20.0650     0.0000     8.0000 </r>
       <r>   -19.9325     0.0000     8.0000 </r>
       <r>   -19.8001     0.0000     8.0000 </r>
       <r>   -19.6676     0.0000     8.0000 </r>
       <r>   -19.5351     0.0000     8.0000 </r>
       <r>   -19.4027     0.0000     8.0000 </r>
       <r>   -19.2702     0.0000     8.0000 </r>
       <r>   -19.1377     0.0000     8.0000 </r>
       <r>   -19.0052     0.0000     8.0000 </r>
       <r>   -18.8728     0.0000     8.0000 </r>
       <r>   -18.7403     0.0000     8.0000 </r>
       <r>   -18.6078     0.0000     8.0000 </r>
       <r>   -18.4754     0.0000     8.0000 </r>
       <r>   -18.3429     0.0000     8.0000 </r>
       <r>   -18.2104     0.0000     8.0000 </r>
       <r>   -18.0779     0.0000     8.0000 </r>
       <r>   -17.9455     0.0000     8.0000 </r>
       <r>   -17.8130     0.0000     8.0000 </r>
       <r>   -17.6805     0.0000     8.0000 </r>
       <r>   -17.5481     0.0000     8.0000 </r>
       <r>   -17.4156     0.0000     8.0000 </r>
       <r>   -17.2831     0.0000     8.0000 </r>
       <r>   -17.1506     0.0000     8.0000 </r>
       <r>   -17.0182     0.0000     8.0000 </r>
       <r>   -16.8857     0.0000     8.0000 </r>
       <r>   -16.7532     0.0000     8.0000 </r>
       <r>   -16.6208     0.0000     8.0000 </r>
       <r>   -16.4883     0.0000     8.0000 </r>
       <r>   -16.3558     0.0000     8.0000 </r>
       <r>   -16.2233     0.0000     8.0000 </r>
       <r>   -16.0909     0.0000     8.0000 </r>
       <r>   -15.9584     0.0316     8.0042 </r>
       <r>   -15.8259    12.2167     9.6225 </r>
       <r>   -15.6935     2.8493    10.0000 </r>
       <r>   -15.5610     0.0000    10.0000 </r>
       <r>   -15.4285     0.0000    10.0000 </r>
       <r>   -15.2960     0.0000    10.0000 </r>
       <r>   -15.1636     0.0000    10.0000 </r>
       <r>   -15.0311     0.0000    10.0000 </r>
       <r>   -14.8986     0.0000    10.0000 </r>
       <r>   -14.7661     0.0000    10.0000 </r>
       <r>   -14.6337     0.0000    10.0000 </r>
       <r>   -14.5012     0.0000    10.0000 </r>
       <r>   -14.3687     0.0000    10.0000 </r>
       <r>   -14.2363     0.0000    10.0000 </r>
       <r>   -14.1038     0.0000    10.0000 </r>
       <r>   -13.9713     0.0000    10.0000 </r>
       <r>   -13.8388     0.0000    10.0000 </r>
       <r>   -13.7064     0.5054    10.0670 </r>
       <r>   -13.5739    14.1731    11.9445 </r>
       <r>   -13.4414     0.4190    12.0000 </r>
       <r>   -13.3090     0.7902    12.1047 </r>
       <r>   -13.1765    28.2767    15.8505 </r>
       <r>   -13.0440     1.2731    16.0192 </r>
       <r>   -12.9115    13.7447    17.8400 </r>
       <r>   -12.7791     1.2081    18.0000 </r>
       <r>   -12.6466     0.0000    18.0000 </r>
       <r>   -12.5141     0.0000    18.0000 </r>
       <r>   -12.3817     0.0000    18.0000 </r>
       <r>   -12.2492     0.0000    18.0000 </r>
       <r>   -12.1167     0.0000    18.0000 </r>
       <r>   -11.9842     0.0000    18.0000 </r>
       <r>   -11.8518     0.0000    18.0000 </r>
       <r>   -11.7193     0.0000    18.0000 </r>
       <r>   -11.5868     0.0000    18.0000 </r>
       <r>   -11.4544     0.0000    18.0000 </r>
       <r>   -11.3219     0.0000    18.0000 </r>
       <r>   -11.1894     0.0000    18.0000 </r>
       <r>   -11.0569     0.0000    18.0000 </r>
       <r>   -10.9245     0.0000    18.0000 </r>
       <r>   -10.7920     0.0000    18.0000 </r>
       <r>   -10.6595     0.0000    18.0000 </r>
       <r>   -10.5271     0.0000    18.0000 </r>
       <r>   -10.3946     0.0000    18.0000 </r>
       <r>   -10.2621     0.0000    18.0000 </r>
       <r>   -10.1296     0.0000    18.0000 </r>
       <r>    -9.9972     0.0000    18.0000 </r>
       <r>    -9.8647     0.0000    18.0000 </r>
       <r>    -9.7322     0.0000    18.0000 </r>
       <r>    -9.5998     0.0000    18.0000 </r>
       <r>    -9.4673     0.0000    18.0000 </r>
       <r>    -9.3348     0.0000    18.0000 </r>
       <r>    -9.2023     0.0000    18.0000 </r>
       <r>    -9.0699     0.0000    18.0000 </r>
       <r>    -8.9374     0.0000    18.0000 </r>
       <r>    -8.8049     0.0000    18.0000 </r>
       <r>    -8.6725     0.0000    18.0000 </r>
       <r>    -8.5400     0.0000    18.0000 </r>
       <r>    -8.4075     0.0000    18.0000 </r>
       <r>    -8.2750     0.0000    18.0000 </r>
       <r>    -8.1426     0.0338    18.0045 </r>
       <r>    -8.0101    12.3034    19.6343 </r>
       <r>    -7.8776     2.7604    20.0000 </r>
       <r>    -7.7452     0.0000    20.0000 </r>
       <r>    -7.6127     0.0000    20.0000 </r>
       <r>    -7.4802     0.0002    20.0000 </r>
       <r>    -7.3477     4.7571    20.6302 </r>
       <r>    -7.2153    10.3320    21.9989 </r>
       <r>    -7.0828     0.0083    22.0000 </r>
       <r>    -6.9503     0.0000    22.0000 </r>
       <r>    -6.8179     0.0000    22.0000 </r>
       <r>    -6.6854     0.0000    22.0000 </r>
       <r>    -6.5529     0.0000    22.0000 </r>
       <r>    -6.4204     0.0000    22.0000 </r>
       <r>    -6.2880     0.0000    22.0000 </r>
       <r>    -6.1555     0.0000    22.0000 </r>
       <r>    -6.0230     0.0000    22.0000 </r>
       <r>    -5.8906     0.0000    22.0000 </r>
       <r>    -5.7581     0.0000    22.0000 </r>
       <r>    -5.6256     0.0000    22.0000 </r>
       <r>    -5.4931     0.0000    22.0000 </r>
       <r>    -5.3607     0.0000    22.0000 </r>
       <r>    -5.2282     0.9115    22.1207 </r>
       <r>    -5.0957    28.3471    25.8759 </r>
       <r>    -4.9633     0.9366    26.0000 </r>
       <r>    -4.8308     0.0000    26.0000 </r>
       <r>    -4.6983     0.0101    26.0013 </r>
       <r>    -4.5658    10.6407    27.4109 </r>
       <r>    -4.4334     4.4466    28.0000 </r>
       <r>    -4.3009     0.0001    28.0000 </r>
       <r>    -4.1684     0.0000    28.0000 </r>
       <r>    -4.0360     0.0000    28.0000 </r>
       <r>    -3.9035     0.0000    28.0000 </r>
       <r>    -3.7710     0.0000    28.0000 </r>
       <r>    -3.6385     0.0000    28.0000 </r>
       <r>    -3.5061     0.0000    28.0000 </r>
       <r>    -3.3736     0.0000    28.0000 </r>
       <r>    -3.2411     0.0000    28.0000 </r>
       <r>    -3.1087     0.0000    28.0000 </r>
       <r>    -2.9762     0.0000    28.0000 </r>
       <r>    -2.8437     0.0000    28.0000 </r>
       <r>    -2.7112     0.0000    28.0000 </r>
       <r>    -2.5788     0.0000    28.0000 </r>
       <r>    -2.4463     0.0000    28.0000 </r>
       <r>    -2.3138     0.0000    28.0000 </r>
       <r>    -2.1814     0.0000    28.0000 </r>
       <r>    -2.0489     0.0000    28.0000 </r>
       <r>    -1.9164     0.0000    28.0000 </r>
       <r>    -1.7839     0.0000    28.0000 </r>
       <r>    -1.6515     0.0000    28.0000 </r>
       <r>    -1.5190     0.0000    28.0000 </r>
       <r>    -1.3865     0.0000    28.0000 </r>
       <r>    -1.2541     0.0000    28.0000 </r>
       <r>    -1.1216     0.0000    28.0000 </r>
       <r>    -0.9891     0.0000    28.0000 </r>
       <r>    -0.8566     0.0000    28.0000 </r>
       <r>    -0.7242     0.0000    28.0000 </r>
       <r>    -0.5917     0.0000    28.0000 </r>
       <r>    -0.4592     0.0000    28.0000 </r>
       <r>    -0.3268     0.0360    28.0048 </r>
       <r>    -0.1943    12.3809    29.6449 </r>
       <r>    -0.0618     2.6807    30.0000 </r>
       <r>     0.0707     0.0000    30.0000 </r>
       <r>     0.2031     0.0000    30.0000 </r>
       <r>     0.3356     1.3063    30.1730 </r>
       <r>     0.4681    13.6622    31.9829 </r>
       <r>     0.6005     0.1291    32.0000 </r>
       <r>     0.7330     0.0000    32.0000 </r>
       <r>     0.8655     0.0000    32.0000 </r>
       <r>     0.9980     0.0000    32.0000 </r>
       <r>     1.1304     0.0000    32.0000 </r>
       <r>     1.2629     0.0000    32.0000 </r>
       <r>     1.3954     0.0000    32.0000 </r>
       <r>     1.5278     0.0000    32.0000 </r>
       <r>     1.6603     0.0000    32.0000 </r>
       <r>     1.7928     0.0000    32.0000 </r>
       <r>     1.9253     0.0000    32.0000 </r>
       <r>     2.0577     0.0000    32.0000 </r>
       <r>     2.1902     0.0000    32.0000 </r>
      </set>
     </set>
    </array>
   </total>
  </dos>
 </calculation>
 <structure name="finalpos" >
  <crystal>
   <varray name="basis" >
    <v>      14.50000000       0.00000000       0.00000000 </v>
    <v>       0.00000000      14.50000000       0.00000000 </v>
    <v>       0.00000000       0.00000000      14.50000000 </v>
   </varray>
   <i name="volume">   3048.62500000 </i>
   <varray name="rec_basis" >
    <v>       0.06896552       0.00000000       0.00000000 </v>
    <v>       0.00000000       0.06896552       0.00000000 </v>
    <v>       0.00000000       0.00000000       0.06896552 </v>
   </varray>
  </crystal>
  <varray name="positions" >
   <v>       0.00000000       0.00000000       0.00000000 </v>
   <v>       0.08275862       0.00000000       0.00000000 </v>
   <v>       0.03448276       0.95862069       0.10344828 </v>
   <v>       0.03448276       0.04137931       0.10344828 </v>
  </varray>
 </structure>
</modeling>
