NiAl                                    
            1
    14.500000    0.000000    0.000000
     0.000000   14.500000    0.000000
     0.000000    0.000000   14.500000
   O 
     4
Direct configuration=     1
   0.00000000  0.00000000  0.00000000
   0.08275862  0.00000000  0.00000000
   0.03448276  0.95862069  0.10344828
   0.03448276  0.04137931  0.10344828
