       N       E                     dE             d eps       ncg     rms          rms(c)
DAV:   1     0.236774424718E+04    0.23677E+04   -0.20427E+05  3080   0.854E+02
DAV:   2    -0.704935582975E+03   -0.30727E+04   -0.29047E+04  4200   0.201E+02
DAV:   3    -0.939607677651E+03   -0.23467E+03   -0.22345E+03  4288   0.433E+01
DAV:   4    -0.950890141805E+03   -0.11282E+02   -0.10490E+02  4344   0.955E+00
DAV:   5    -0.955009016283E+03   -0.41189E+01   -0.25613E+01  5136   0.269E+00    0.229E+01
DAV:   6    -0.966498075401E+03   -0.11489E+02   -0.18003E+02  4552   0.157E+01    0.255E+01
DAV:   7    -0.929929550364E+03    0.36569E+02   -0.13091E+02  4032   0.149E+01    0.108E+01
DAV:   8    -0.944458319006E+03   -0.14529E+02   -0.39530E+01  4312   0.108E+01    0.140E+01
DAV:   9    -0.929130861777E+03    0.15327E+02   -0.11613E+01  4120   0.101E+01    0.929E+00
DAV:  10    -0.931318615186E+03   -0.21878E+01   -0.13316E+01  4032   0.452E+00    0.147E+01
DAV:  11    -0.927353734527E+03    0.39649E+01   -0.37799E+00  3808   0.227E+00    0.131E+01
DAV:  12    -0.927449806046E+03   -0.96072E-01   -0.12312E+00  4416   0.993E-01    0.908E+00
DAV:  13    -0.927101171396E+03    0.34863E+00   -0.38633E-01  3640   0.705E-01    0.825E+00
DAV:  14    -0.926310262809E+03    0.79091E+00   -0.19936E-01  3768   0.392E-01    0.114E+00
DAV:  15    -0.926558754197E+03   -0.24849E+00   -0.75836E-01  3832   0.199E-01    0.773E+00
DAV:  16    -0.926343252846E+03    0.21550E+00   -0.52209E-01  3840   0.167E-01    0.587E+00
DAV:  17    -0.926352425621E+03   -0.91728E-02   -0.21443E-01  3536   0.137E-01    0.346E+00
DAV:  18    -0.926455807499E+03   -0.10338E+00   -0.31780E-01  3424   0.940E-02    0.759E+00
DAV:  19    -0.926360726937E+03    0.95081E-01   -0.61146E-03  3776   0.801E-02    0.578E+00
DAV:  20    -0.926331840113E+03    0.28887E-01   -0.91844E-03  3496   0.627E-02    0.707E-01
DAV:  21    -0.926424250865E+03   -0.92411E-01   -0.75797E-02  3808   0.521E-02    0.419E+00
DAV:  22    -0.926396511089E+03    0.27740E-01   -0.62544E-03  3304   0.504E-02    0.297E+00
DAV:  23    -0.926409544864E+03   -0.13034E-01   -0.77411E-02  3568   0.310E-02    0.358E+00
DAV:  24    -0.926420918602E+03   -0.11374E-01   -0.11084E-01  3248   0.509E-02    0.336E+00
DAV:  25    -0.926417108677E+03    0.38099E-02   -0.66991E-02  3272   0.417E-02    0.204E+00
DAV:  26    -0.926426571870E+03   -0.94632E-02   -0.15333E-03  3160   0.284E-02    0.852E-01
DAV:  27    -0.926432440772E+03   -0.58689E-02   -0.54826E-04  3080   0.133E-02    0.522E-01
DAV:  28    -0.926433588583E+03   -0.11478E-02   -0.12263E-04  2784   0.819E-03    0.964E-02
DAV:  29    -0.926434949424E+03   -0.13608E-02   -0.74281E-05  2664   0.607E-03    0.233E-02
DAV:  30    -0.926435739198E+03   -0.78977E-03   -0.57789E-05  2672   0.483E-03    0.109E-01
DAV:  31    -0.926436146912E+03   -0.40771E-03   -0.32478E-05  2568   0.367E-03    0.124E-01
DAV:  32    -0.926436478935E+03   -0.33202E-03   -0.17116E-05  2400   0.220E-03    0.650E-02
DAV:  33    -0.926436686860E+03   -0.20793E-03   -0.62315E-06  2296   0.209E-03    0.433E-02
DAV:  34    -0.926436744783E+03   -0.57922E-04   -0.22806E-06  2056   0.103E-03    0.347E-02
DAV:  35    -0.926436785569E+03   -0.40787E-04   -0.25941E-06  2080   0.882E-04    0.139E-02
DAV:  36    -0.926436793613E+03   -0.80441E-05   -0.60480E-07  1944   0.742E-04    0.101E-02
DAV:  37    -0.926436793701E+03   -0.87122E-07   -0.17019E-07  1760   0.428E-04
   1 F= -.99903281E+03 E0= -.99897081E+03  d E =-.124007E+00
