NiAl                                    
            1
    17.180573    0.000000    0.000000
     8.590287   14.878812    0.000000
     0.000000    0.000000   37.600000
   Al   O 
   252   128
Direct configuration=     1
   0.44444442  0.44444445  0.06218032
   0.44444442  0.77777779  0.06218032
   0.44444439  0.11111116  0.06218032
   0.77777773  0.44444445  0.06218032
   0.77777779  0.77777779  0.06218032
   0.77777773  0.11111116  0.06218032
   0.11111105  0.44444445  0.06218032
   0.11111116  0.77777779  0.06218032
   0.11111105  0.11111116  0.06218032
   0.55555552  0.55555558  0.12436064
   0.55555552  0.88888890  0.12436064
   0.55555552  0.22222233  0.12436064
   0.88888890  0.55555558  0.12436064
   0.88888884  0.88888890  0.12436064
   0.88888890  0.22222233  0.12436064
   0.22222221  0.55555558  0.12436064
   0.22222221  0.88888890  0.12436064
   0.22222221  0.22222233  0.12436064
   0.66666663  0.66666663  0.18654096
   0.66666669  0.00000000  0.18654096
   0.66666663  0.33333325  0.18654096
   0.00000000  0.66666663  0.18654096
   0.00000000  0.00000000  0.18654096
   0.00000000  0.33333325  0.18654096
   0.33333337  0.66666663  0.18654096
   0.33333337  0.00000000  0.18654096
   0.33333325  0.33333325  0.18654096
   0.77777779  0.77777779  0.24872129
   0.77777773  0.11111116  0.24872129
   0.77777779  0.44444442  0.24872129
   0.11111116  0.77777779  0.24872129
   0.11111105  0.11111116  0.24872129
   0.11111116  0.44444442  0.24872129
   0.44444442  0.77777779  0.24872129
   0.44444430  0.11111116  0.24872129
   0.44444442  0.44444442  0.24872129
   0.88888884  0.88888890  0.31090158
   0.88888890  0.22222233  0.31090158
   0.88888884  0.55555558  0.31090158
   0.22222221  0.88888890  0.31090158
   0.22222221  0.22222233  0.31090158
   0.22222209  0.55555558  0.31090158
   0.55555546  0.88888890  0.31090158
   0.55555546  0.22222233  0.31090158
   0.55555558  0.55555558  0.31090158
   0.00000000  0.00000000  0.37308191
   0.00000000  0.33333325  0.37308191
   0.00000000  0.66666663  0.37308191
   0.33333337  0.00000000  0.37308191
   0.33333325  0.33333325  0.37308191
   0.33333325  0.66666663  0.37308191
   0.66666663  0.00000000  0.37308191
   0.66666675  0.33333325  0.37308191
   0.66666675  0.66666663  0.37308191
   0.11111105  0.11111116  0.43526222
   0.11111116  0.44444442  0.43526222
   0.11111105  0.77777779  0.43526222
   0.44444430  0.11111116  0.43526222
   0.44444442  0.44444442  0.43526222
   0.44444442  0.77777779  0.43526222
   0.77777779  0.11111116  0.43526222
   0.77777791  0.44444442  0.43526222
   0.77777767  0.77777779  0.43526222
   0.27777776  0.27777779  0.06218032
   0.27777776  0.61111116  0.06218032
   0.27777779  0.94444448  0.06218032
   0.61111110  0.27777779  0.06218032
   0.61111110  0.61111116  0.06218032
   0.61111110  0.94444448  0.06218032
   0.94444442  0.27777779  0.06218032
   0.94444448  0.61111116  0.06218032
   0.94444442  0.94444448  0.06218032
   0.38888890  0.38888890  0.12436064
   0.38888890  0.72222221  0.12436064
   0.38888893  0.05555558  0.12436064
   0.72222221  0.38888890  0.12436064
   0.72222221  0.72222221  0.12436064
   0.72222227  0.05555558  0.12436064
   0.05555558  0.38888890  0.12436064
   0.05555558  0.72222221  0.12436064
   0.05555546  0.05555558  0.12436064
   0.50000000  0.50000000  0.18654096
   0.50000006  0.83333331  0.18654096
   0.49999997  0.16666675  0.18654096
   0.83333331  0.50000000  0.18654096
   0.83333337  0.83333331  0.18654096
   0.83333331  0.16666675  0.18654096
   0.16666663  0.50000000  0.18654096
   0.16666663  0.83333331  0.18654096
   0.16666663  0.16666675  0.18654096
   0.61111110  0.61111116  0.24872129
   0.61111110  0.94444448  0.24872129
   0.61111116  0.27777779  0.24872129
   0.94444448  0.61111116  0.24872129
   0.94444442  0.94444448  0.24872129
   0.94444442  0.27777779  0.24872129
   0.27777767  0.61111116  0.24872129
   0.27777779  0.94444448  0.24872129
   0.27777779  0.27777779  0.24872129
   0.72222221  0.72222221  0.31090158
   0.72222227  0.05555558  0.31090158
   0.72222221  0.38888884  0.31090158
   0.05555558  0.72222221  0.31090158
   0.05555546  0.05555558  0.31090158
   0.05555558  0.38888884  0.31090158
   0.38888895  0.72222221  0.31090158
   0.38888884  0.05555558  0.31090158
   0.38888895  0.38888884  0.31090158
   0.83333337  0.83333331  0.37308191
   0.83333331  0.16666675  0.37308191
   0.83333325  0.50000000  0.37308191
   0.16666663  0.83333331  0.37308191
   0.16666663  0.16666675  0.37308191
   0.16666663  0.50000000  0.37308191
   0.50000000  0.83333331  0.37308191
   0.50000000  0.16666675  0.37308191
   0.50000012  0.50000000  0.37308191
   0.94444442  0.94444448  0.43526222
   0.94444442  0.27777779  0.43526222
   0.94444448  0.61111105  0.43526222
   0.27777779  0.94444448  0.43526222
   0.27777779  0.27777779  0.43526222
   0.27777779  0.61111105  0.43526222
   0.61111116  0.94444448  0.43526222
   0.61111128  0.27777779  0.43526222
   0.61111105  0.61111105  0.43526222
   0.27777776  0.44444445  0.06218032
   0.27777773  0.77777779  0.06218032
   0.27777776  0.11111116  0.06218032
   0.61111110  0.44444445  0.06218032
   0.61111105  0.77777779  0.06218032
   0.61111110  0.11111116  0.06218032
   0.94444448  0.44444445  0.06218032
   0.94444442  0.77777779  0.06218032
   0.94444448  0.11111116  0.06218032
   0.38888887  0.55555558  0.12436064
   0.38888887  0.88888890  0.12436064
   0.38888881  0.22222233  0.12436064
   0.72222215  0.55555558  0.12436064
   0.72222221  0.88888890  0.12436064
   0.72222215  0.22222233  0.12436064
   0.05555546  0.55555558  0.12436064
   0.05555558  0.88888890  0.12436064
   0.05555546  0.22222233  0.12436064
   0.50000000  0.66666663  0.18654096
   0.49999994  0.00000000  0.18654096
   0.50000000  0.33333325  0.18654096
   0.83333337  0.66666663  0.18654096
   0.83333331  0.00000000  0.18654096
   0.83333337  0.33333325  0.18654096
   0.16666675  0.66666663  0.18654096
   0.16666663  0.00000000  0.18654096
   0.16666675  0.33333325  0.18654096
   0.61111105  0.77777779  0.24872129
   0.61111110  0.11111116  0.24872129
   0.61111105  0.44444442  0.24872129
   0.94444442  0.77777779  0.24872129
   0.94444448  0.11111116  0.24872129
   0.94444442  0.44444442  0.24872129
   0.27777779  0.77777779  0.24872129
   0.27777779  0.11111116  0.24872129
   0.27777767  0.44444442  0.24872129
   0.72222221  0.88888890  0.31090158
   0.72222215  0.22222233  0.31090158
   0.72222221  0.55555558  0.31090158
   0.05555558  0.88888890  0.31090158
   0.05555546  0.22222233  0.31090158
   0.05555558  0.55555558  0.31090158
   0.38888895  0.88888890  0.31090158
   0.38888872  0.22222233  0.31090158
   0.38888884  0.55555558  0.31090158
   0.83333331  0.00000000  0.37308191
   0.83333337  0.33333325  0.37308191
   0.83333331  0.66666663  0.37308191
   0.16666663  0.00000000  0.37308191
   0.16666675  0.33333325  0.37308191
   0.16666663  0.66666663  0.37308191
   0.49999988  0.00000000  0.37308191
   0.50000000  0.33333325  0.37308191
   0.50000000  0.66666663  0.37308191
   0.94444448  0.11111116  0.43526222
   0.94444442  0.44444442  0.43526222
   0.94444448  0.77777779  0.43526222
   0.27777779  0.11111116  0.43526222
   0.27777767  0.44444442  0.43526222
   0.27777767  0.77777779  0.43526222
   0.61111105  0.11111116  0.43526222
   0.61111116  0.44444442  0.43526222
   0.61111116  0.77777779  0.43526222
   0.44444445  0.27777779  0.06218032
   0.44444445  0.61111116  0.06218032
   0.44444445  0.94444448  0.06218032
   0.77777779  0.27777779  0.06218032
   0.77777773  0.61111116  0.06218032
   0.77777779  0.94444448  0.06218032
   0.11111116  0.27777779  0.06218032
   0.11111105  0.61111116  0.06218032
   0.11111105  0.94444448  0.06218032
   0.55555558  0.38888890  0.12436064
   0.55555558  0.72222221  0.12436064
   0.55555552  0.05555558  0.12436064
   0.88888884  0.38888890  0.12436064
   0.88888895  0.72222221  0.12436064
   0.88888890  0.05555558  0.12436064
   0.22222221  0.38888890  0.12436064
   0.22222221  0.72222221  0.12436064
   0.22222221  0.05555558  0.12436064
   0.66666669  0.50000000  0.18654096
   0.66666663  0.83333331  0.18654096
   0.66666669  0.16666675  0.18654096
   0.00000000  0.50000000  0.18654096
   0.00000000  0.83333331  0.18654096
   0.00000000  0.16666675  0.18654096
   0.33333325  0.50000000  0.18654096
   0.33333337  0.83333331  0.18654096
   0.33333325  0.16666675  0.18654096
   0.77777773  0.61111116  0.24872129
   0.77777779  0.94444448  0.24872129
   0.77777779  0.27777779  0.24872129
   0.11111105  0.61111116  0.24872129
   0.11111105  0.94444448  0.24872129
   0.11111116  0.27777779  0.24872129
   0.44444442  0.61111116  0.24872129
   0.44444442  0.94444448  0.24872129
   0.44444454  0.27777779  0.24872129
   0.88888895  0.72222221  0.31090158
   0.88888890  0.05555558  0.31090158
   0.88888884  0.38888884  0.31090158
   0.22222221  0.72222221  0.31090158
   0.22222221  0.05555558  0.31090158
   0.22222221  0.38888884  0.31090158
   0.55555546  0.72222221  0.31090158
   0.55555558  0.05555558  0.31090158
   0.55555570  0.38888884  0.31090158
   0.00000000  0.83333331  0.37308191
   0.00000000  0.16666675  0.37308191
   0.00000000  0.50000000  0.37308191
   0.33333337  0.83333331  0.37308191
   0.33333325  0.16666675  0.37308191
   0.33333337  0.50000000  0.37308191
   0.66666675  0.83333331  0.37308191
   0.66666675  0.16666675  0.37308191
   0.66666663  0.50000000  0.37308191
   0.11111105  0.94444448  0.43526222
   0.11111116  0.27777779  0.43526222
   0.11111116  0.61111105  0.43526222
   0.44444442  0.94444448  0.43526222
   0.44444454  0.27777779  0.43526222
   0.44444454  0.61111105  0.43526222
   0.77777791  0.94444448  0.43526222
   0.77777779  0.27777779  0.43526222
   0.77777779  0.61111105  0.43526222
   0.00000000  0.00000000  0.47249626
   0.00000000  0.00000000  0.50441116
   0.00000000  0.12500000  0.47249626
   0.00000000  0.12500000  0.50441116
   0.00000000  0.25000000  0.47249626
   0.00000000  0.25000000  0.50441116
   0.00000000  0.37500000  0.47249626
   0.00000000  0.37500000  0.50441116
   0.00000000  0.50000000  0.47249626
   0.00000000  0.50000000  0.50441116
   0.00000000  0.62500000  0.47249626
   0.00000000  0.62500000  0.50441116
   0.00000000  0.75000000  0.47249626
   0.00000000  0.75000000  0.50441116
   0.00000000  0.87500000  0.47249626
   0.00000000  0.87500000  0.50441116
   0.12500000  0.00000000  0.47249626
   0.12500000  0.00000000  0.50441116
   0.12500000  0.12500000  0.47249626
   0.12500000  0.12500000  0.50441116
   0.12500000  0.25000000  0.47249626
   0.12500000  0.25000000  0.50441116
   0.12500000  0.37500000  0.47249626
   0.12500000  0.37500000  0.50441116
   0.12500000  0.50000000  0.47249626
   0.12500000  0.50000000  0.50441116
   0.12500000  0.62500000  0.47249626
   0.12500000  0.62500000  0.50441116
   0.12500000  0.75000000  0.47249626
   0.12500000  0.75000000  0.50441116
   0.12500000  0.87500000  0.47249626
   0.12500000  0.87500000  0.50441116
   0.25000000  0.00000000  0.47249626
   0.25000000  0.00000000  0.50441116
   0.25000000  0.12500000  0.47249626
   0.25000000  0.12500000  0.50441116
   0.25000000  0.25000000  0.47249626
   0.25000000  0.25000000  0.50441116
   0.25000000  0.37500000  0.47249626
   0.25000000  0.37500000  0.50441116
   0.25000000  0.50000000  0.47249626
   0.25000000  0.50000000  0.50441116
   0.25000000  0.62500000  0.47249626
   0.25000000  0.62500000  0.50441116
   0.25000000  0.75000000  0.47249626
   0.25000000  0.75000000  0.50441116
   0.25000000  0.87500000  0.47249626
   0.25000000  0.87500000  0.50441116
   0.37500000  0.00000000  0.47249626
   0.37500000  0.00000000  0.50441116
   0.37500000  0.12500000  0.47249626
   0.37500000  0.12500000  0.50441116
   0.37500000  0.25000000  0.47249626
   0.37500000  0.25000000  0.50441116
   0.37500000  0.37500000  0.47249626
   0.37500000  0.37500000  0.50441116
   0.37500000  0.50000000  0.47249626
   0.37500000  0.50000000  0.50441116
   0.37500000  0.62500000  0.47249626
   0.37500000  0.62500000  0.50441116
   0.37500000  0.75000000  0.47249626
   0.37500000  0.75000000  0.50441116
   0.37500000  0.87500000  0.47249626
   0.37500000  0.87500000  0.50441116
   0.50000000  0.00000000  0.47249626
   0.50000000  0.00000000  0.50441116
   0.50000000  0.12500000  0.47249626
   0.50000000  0.12500000  0.50441116
   0.50000000  0.25000000  0.47249626
   0.50000000  0.25000000  0.50441116
   0.50000000  0.37500000  0.47249626
   0.50000000  0.37500000  0.50441116
   0.50000000  0.50000000  0.47249626
   0.50000000  0.50000000  0.50441116
   0.50000000  0.62500000  0.47249626
   0.50000000  0.62500000  0.50441116
   0.50000000  0.75000000  0.47249626
   0.50000000  0.75000000  0.50441116
   0.50000000  0.87500000  0.47249626
   0.50000000  0.87500000  0.50441116
   0.62500000  0.00000000  0.47249626
   0.62500000  0.00000000  0.50441116
   0.62500000  0.12500000  0.47249626
   0.62500000  0.12500000  0.50441116
   0.62500000  0.25000000  0.47249626
   0.62500000  0.25000000  0.50441116
   0.62500000  0.37500000  0.47249626
   0.62500000  0.37500000  0.50441116
   0.62500000  0.50000000  0.47249626
   0.62500000  0.50000000  0.50441116
   0.62500000  0.62500000  0.47249626
   0.62500000  0.62500000  0.50441116
   0.62500000  0.75000000  0.47249626
   0.62500000  0.75000000  0.50441116
   0.62500000  0.87500000  0.47249626
   0.62500000  0.87500000  0.50441116
   0.75000000  0.00000000  0.47249626
   0.75000000  0.00000000  0.50441116
   0.75000000  0.12500000  0.47249626
   0.75000000  0.12500000  0.50441116
   0.75000000  0.25000000  0.47249626
   0.75000000  0.25000000  0.50441116
   0.75000000  0.37500000  0.47249626
   0.75000000  0.37500000  0.50441116
   0.75000000  0.50000000  0.47249626
   0.75000000  0.50000000  0.50441116
   0.75000000  0.62500000  0.47249626
   0.75000000  0.62500000  0.50441116
   0.75000000  0.75000000  0.47249626
   0.75000000  0.75000000  0.50441116
   0.75000000  0.87500000  0.47249626
   0.75000000  0.87500000  0.50441116
   0.87500000  0.00000000  0.47249626
   0.87500000  0.00000000  0.50441116
   0.87500000  0.12500000  0.47249626
   0.87500000  0.12500000  0.50441116
   0.87500000  0.25000000  0.47249626
   0.87500000  0.25000000  0.50441116
   0.87500000  0.37500000  0.47249626
   0.87500000  0.37500000  0.50441116
   0.87500000  0.50000000  0.47249626
   0.87500000  0.50000000  0.50441116
   0.87500000  0.62500000  0.47249626
   0.87500000  0.62500000  0.50441116
   0.87500000  0.75000000  0.47249626
   0.87500000  0.75000000  0.50441116
   0.87500000  0.87500000  0.47249626
   0.87500000  0.87500000  0.50441116
Direct configuration=     2
   0.44444481  0.44444484  0.06219546
   0.44443181  0.77778410  0.06219695
   0.44444478  0.11111038  0.06219546
   0.77778404  0.44443184  0.06219695
   0.77778410  0.77778410  0.06219695
   0.77778692  0.11110657  0.06219978
   0.11111027  0.44444484  0.06219546
   0.11110657  0.77778698  0.06219978
   0.11110645  0.11110657  0.06219978
   0.55555276  0.55555282  0.12442141
   0.55555276  0.88889443  0.12442141
   0.55554707  0.22222655  0.12442174
   0.88889443  0.55555282  0.12442141
   0.88888755  0.88888761  0.12441793
   0.88888761  0.22222490  0.12441793
   0.22222643  0.55554713  0.12442174
   0.22222478  0.88888761  0.12441793
   0.22222643  0.22222655  0.12442174
   0.66666663  0.66666663  0.18654865
   0.66666872 -0.00000841  0.18655306
   0.66666866  0.33333963  0.18655306
  -0.00000841  0.66666866  0.18655306
  -0.00000000  0.00000000  0.18655655
  -0.00000841  0.33333963  0.18655306
   0.33333975  0.66666866  0.18655306
   0.33333975 -0.00000841  0.18655306
   0.33333325  0.33333325  0.18655204
   0.77778300  0.77778300  0.24873250
   0.77779026  0.11110490  0.24872883
   0.77778300  0.44443400  0.24873250
   0.11110490  0.77779032  0.24872883
   0.11110478  0.11110490  0.24872883
   0.11110877  0.44444562  0.24873176
   0.44443400  0.77778300  0.24873250
   0.44444550  0.11110877  0.24873176
   0.44444562  0.44444562  0.24873176
   0.88888730  0.88888736  0.31087209
   0.88888736  0.22222541  0.31087209
   0.88890225  0.55554887  0.31087355
   0.22222529  0.88888736  0.31087209
   0.22222690  0.22222702  0.31087834
   0.22222678  0.55554621  0.31087834
   0.55554875  0.88890231  0.31087355
   0.55554609  0.22222702  0.31087834
   0.55554887  0.55554887  0.31087355
  -0.00000000  0.00000000  0.37315537
  -0.00001537  0.33334650  0.37315059
  -0.00001537  0.66666875  0.37315059
   0.33334662 -0.00001537  0.37315059
   0.33333325  0.33333325  0.37314460
   0.33334650  0.66666875  0.37315059
   0.66666875 -0.00001537  0.37315059
   0.66666887  0.33334650  0.37315059
   0.66666675  0.66666663  0.37314945
   0.10877207  0.10877219  0.42847487
   0.11064532  0.44467734  0.43369596
   0.10877207  0.78245573  0.42847487
   0.44467722  0.11064532  0.43369596
   0.44467734  0.44467734  0.43369596
   0.44158810  0.77920595  0.43282852
   0.78245573  0.10877219  0.42847487
   0.77920607  0.44158810  0.43282852
   0.77920583  0.77920595  0.43282852
   0.27778407  0.27778410  0.06219695
   0.27778695  0.61110657  0.06219978
   0.27778410  0.94443187  0.06219695
   0.61110651  0.27778698  0.06219978
   0.61110651  0.61110657  0.06219978
   0.61111032  0.94444487  0.06219546
   0.94443181  0.27778410  0.06219695
   0.94444487  0.61111038  0.06219546
   0.94444481  0.94444487  0.06219546
   0.38888761  0.38888761  0.12441793
   0.38888761  0.72222478  0.12441793
   0.38889446  0.05555282  0.12442141
   0.72222478  0.38888761  0.12441793
   0.72222643  0.72222643  0.12442174
   0.72222649  0.05554713  0.12442174
   0.05555282  0.38889443  0.12442141
   0.05554713  0.72222643  0.12442174
   0.05555270  0.05555282  0.12442141
   0.50000000  0.50000000  0.18655655
   0.49999165  0.83333969  0.18655306
   0.49999156  0.16666878  0.18655306
   0.83333969  0.49999159  0.18655306
   0.83333337  0.83333331  0.18655204
   0.83333969  0.16666878  0.18655306
   0.16666866  0.49999159  0.18655306
   0.16666866  0.83333969  0.18655306
   0.16666663  0.16666675  0.18654865
   0.61110484  0.61110490  0.24872883
   0.61110871  0.94444568  0.24873176
   0.61110490  0.27779032  0.24872883
   0.94444568  0.61110877  0.24873176
   0.94444562  0.94444568  0.24873176
   0.94443400  0.27778300  0.24873250
   0.27779020  0.61110490  0.24872883
   0.27778300  0.94443406  0.24873250
   0.27778300  0.27778300  0.24873250
   0.72222690  0.72222690  0.31087834
   0.72222696  0.05554621  0.31087834
   0.72222529  0.38888730  0.31087209
   0.05554621  0.72222690  0.31087834
   0.05554875  0.05554887  0.31087355
   0.05554887  0.38890225  0.31087355
   0.38888742  0.72222529  0.31087209
   0.38890225  0.05554887  0.31087355
   0.38888742  0.38888730  0.31087209
   0.83333337  0.83333331  0.37314460
   0.83334656  0.16666887  0.37315059
   0.83334650  0.49998463  0.37315059
   0.16666875  0.83334656  0.37315059
   0.16666663  0.16666675  0.37314945
   0.16666875  0.49998463  0.37315059
   0.49998463  0.83334656  0.37315059
   0.49998463  0.16666887  0.37315059
   0.50000012  0.50000000  0.37315537
   0.94467734  0.94467740  0.43369596
   0.94158810  0.27920595  0.43282852
   0.94467740  0.61064520  0.43369596
   0.27920595  0.94158816  0.43282852
   0.27920595  0.27920595  0.43282852
   0.28245573  0.60877207  0.42847487
   0.61064532  0.94467740  0.43369596
   0.60877231  0.28245573  0.42847487
   0.60877207  0.60877207  0.42847487
   0.27778407  0.44443184  0.06219695
   0.27778404  0.77778410  0.06219695
   0.27778695  0.11110657  0.06219978
   0.61111032  0.44444484  0.06219546
   0.61110645  0.77778698  0.06219978
   0.61110651  0.11110657  0.06219978
   0.94444487  0.44444484  0.06219546
   0.94443181  0.77778410  0.06219695
   0.94444487  0.11111038  0.06219546
   0.38889440  0.55555282  0.12442141
   0.38888758  0.88888761  0.12441793
   0.38888752  0.22222490  0.12441793
   0.72222637  0.55554713  0.12442174
   0.72222478  0.88888761  0.12441793
   0.72222637  0.22222655  0.12442174
   0.05555270  0.55555282  0.12442141
   0.05555282  0.88889443  0.12442141
   0.05554701  0.22222655  0.12442174
   0.49999159  0.66666866  0.18655306
   0.49999994  0.00000000  0.18655655
   0.49999159  0.33333963  0.18655306
   0.83333975  0.66666866  0.18655306
   0.83333969 -0.00000841  0.18655306
   0.83333337  0.33333325  0.18655204
   0.16666675  0.66666663  0.18654865
   0.16666866 -0.00000841  0.18655306
   0.16666878  0.33333963  0.18655306
   0.61110478  0.77779032  0.24872883
   0.61110484  0.11110490  0.24872883
   0.61110865  0.44444562  0.24873176
   0.94443400  0.77778300  0.24873250
   0.94444568  0.11110877  0.24873176
   0.94444562  0.44444562  0.24873176
   0.27778300  0.77778300  0.24873250
   0.27779032  0.11110490  0.24872883
   0.27778288  0.44443400  0.24873250
   0.72222529  0.88888736  0.31087209
   0.72222684  0.22222702  0.31087834
   0.72222690  0.55554621  0.31087834
   0.05554887  0.88890231  0.31087355
   0.05554609  0.22222702  0.31087834
   0.05554887  0.55554887  0.31087355
   0.38888742  0.88888736  0.31087209
   0.38888718  0.22222541  0.31087209
   0.38890225  0.55554887  0.31087355
   0.83334656 -0.00001537  0.37315059
   0.83333337  0.33333325  0.37314460
   0.83334656  0.66666875  0.37315059
   0.16666875 -0.00001537  0.37315059
   0.16666887  0.33334650  0.37315059
   0.16666663  0.66666663  0.37314945
   0.49999988  0.00000000  0.37315537
   0.49998463  0.33334650  0.37315059
   0.49998463  0.66666875  0.37315059
   0.94467740  0.11064532  0.43369596
   0.94467734  0.44467734  0.43369596
   0.94158816  0.77920595  0.43282852
   0.28245573  0.10877219  0.42847487
   0.27920583  0.44158810  0.43282852
   0.27920583  0.77920595  0.43282852
   0.60877207  0.10877219  0.42847487
   0.61064532  0.44467734  0.43369596
   0.60877219  0.78245573  0.42847487
   0.44443184  0.27778410  0.06219695
   0.44444484  0.61111038  0.06219546
   0.44444484  0.94444487  0.06219546
   0.77778410  0.27778410  0.06219695
   0.77778692  0.61110657  0.06219978
   0.77778410  0.94443187  0.06219695
   0.11110657  0.27778698  0.06219978
   0.11110645  0.61110657  0.06219978
   0.11111027  0.94444487  0.06219546
   0.55555282  0.38889443  0.12442141
   0.55554713  0.72222643  0.12442174
   0.55555276  0.05555282  0.12442141
   0.88888755  0.38888761  0.12441793
   0.88888767  0.72222478  0.12441793
   0.88889443  0.05555282  0.12442141
   0.22222478  0.38888761  0.12441793
   0.22222643  0.72222643  0.12442174
   0.22222643  0.05554713  0.12442174
   0.66666872  0.49999159  0.18655306
   0.66666866  0.83333969  0.18655306
   0.66666669  0.16666675  0.18654865
  -0.00000000  0.50000000  0.18655655
  -0.00000841  0.83333969  0.18655306
  -0.00000841  0.16666878  0.18655306
   0.33333963  0.49999159  0.18655306
   0.33333337  0.83333331  0.18655204
   0.33333963  0.16666878  0.18655306
   0.77779026  0.61110490  0.24872883
   0.77778300  0.94443406  0.24873250
   0.77778300  0.27778300  0.24873250
   0.11110478  0.61110490  0.24872883
   0.11110865  0.94444568  0.24873176
   0.11110490  0.27779032  0.24872883
   0.44444562  0.61110877  0.24873176
   0.44444562  0.94444568  0.24873176
   0.44443412  0.27778300  0.24873250
   0.88888742  0.72222529  0.31087209
   0.88890231  0.05554887  0.31087355
   0.88888730  0.38888730  0.31087209
   0.22222690  0.72222690  0.31087834
   0.22222690  0.05554621  0.31087834
   0.22222529  0.38888730  0.31087209
   0.55554609  0.72222690  0.31087834
   0.55554887  0.05554887  0.31087355
   0.55554899  0.38890225  0.31087355
  -0.00001537  0.83334656  0.37315059
  -0.00001537  0.16666887  0.37315059
  -0.00000000  0.50000000  0.37315537
   0.33333337  0.83333331  0.37314460
   0.33334650  0.16666887  0.37315059
   0.33334662  0.49998463  0.37315059
   0.66666887  0.83334656  0.37315059
   0.66666675  0.16666675  0.37314945
   0.66666875  0.49998463  0.37315059
   0.11064520  0.94467740  0.43369596
   0.10877219  0.28245573  0.42847487
   0.10877219  0.60877207  0.42847487
   0.44467734  0.94467740  0.43369596
   0.44158822  0.27920595  0.43282852
   0.44467746  0.61064520  0.43369596
   0.77920607  0.94158816  0.43282852
   0.77920595  0.27920595  0.43282852
   0.78245573  0.60877207  0.42847487
  -0.00000000  0.00000000  0.46907405
  -0.00000000  0.00000000  0.50799082
   0.00121845  0.12534276  0.46964341
  -0.00014739  0.12486582  0.50801098
   0.00326601  0.24836700  0.47108096
  -0.00024297  0.25012148  0.50798944
   0.00121845  0.37343879  0.46964341
  -0.00014739  0.37528157  0.50801098
  -0.00000000  0.50000000  0.46907405
  -0.00000000  0.50000000  0.50799082
   0.00121845  0.62534276  0.46964341
  -0.00014739  0.62486582  0.50801098
   0.00326601  0.74836700  0.47108096
  -0.00024297  0.75012148  0.50798944
   0.00121845  0.87343879  0.46964341
  -0.00014739  0.87528157  0.50801098
   0.12534276  0.00121845  0.46964341
   0.12486582 -0.00014739  0.50801098
   0.12730910  0.12730910  0.47537272
   0.12497303  0.12497303  0.50804409
   0.12730910  0.24538180  0.47537272
   0.12497303  0.25005395  0.50804409
   0.12534276  0.37343879  0.46964341
   0.12486582  0.37528157  0.50801098
   0.12534276  0.50121845  0.46964341
   0.12486582  0.49985261  0.50801098
   0.12730910  0.62730910  0.47537272
   0.12497303  0.62497303  0.50804409
   0.12730910  0.74538180  0.47537272
   0.12497303  0.75005395  0.50804409
   0.12534276  0.87343879  0.46964341
   0.12486582  0.87528157  0.50801098
   0.24836700  0.00326601  0.47108096
   0.25012148 -0.00024297  0.50798944
   0.24538180  0.12730910  0.47537272
   0.25005395  0.12497303  0.50804409
   0.24836700  0.24836700  0.47108096
   0.25012148  0.25012148  0.50798944
   0.24990129  0.37504935  0.46902541
   0.25012972  0.37493514  0.50803077
   0.24836700  0.50326601  0.47108096
   0.25012148  0.49975703  0.50798944
   0.24538180  0.62730910  0.47537272
   0.25005395  0.62497303  0.50804409
   0.24836700  0.74836700  0.47108096
   0.25012148  0.75012148  0.50798944
   0.24990129  0.87504935  0.46902541
   0.25012972  0.87493514  0.50803077
   0.37343879  0.00121845  0.46964341
   0.37528157 -0.00014739  0.50801098
   0.37343879  0.12534276  0.46964341
   0.37528157  0.12486582  0.50801098
   0.37504935  0.24990129  0.46902541
   0.37493514  0.25012972  0.50803077
   0.37504935  0.37504935  0.46902541
   0.37493514  0.37493514  0.50803077
   0.37343879  0.50121845  0.46964341
   0.37528157  0.49985261  0.50801098
   0.37343879  0.62534276  0.46964341
   0.37528157  0.62486582  0.50801098
   0.37504935  0.74990129  0.46902541
   0.37493514  0.75012972  0.50803077
   0.37504935  0.87504935  0.46902541
   0.37493514  0.87493514  0.50803077
   0.50000000  0.00000000  0.46907405
   0.50000000  0.00000000  0.50799082
   0.50121845  0.12534276  0.46964341
   0.49985261  0.12486582  0.50801098
   0.50326601  0.24836700  0.47108096
   0.49975703  0.25012148  0.50798944
   0.50121845  0.37343879  0.46964341
   0.49985261  0.37528157  0.50801098
   0.50000000  0.50000000  0.46907405
   0.50000000  0.50000000  0.50799082
   0.50121845  0.62534276  0.46964341
   0.49985261  0.62486582  0.50801098
   0.50326601  0.74836700  0.47108096
   0.49975703  0.75012148  0.50798944
   0.50121845  0.87343879  0.46964341
   0.49985261  0.87528157  0.50801098
   0.62534276  0.00121845  0.46964341
   0.62486582 -0.00014739  0.50801098
   0.62730910  0.12730910  0.47537272
   0.62497303  0.12497303  0.50804409
   0.62730910  0.24538180  0.47537272
   0.62497303  0.25005395  0.50804409
   0.62534276  0.37343879  0.46964341
   0.62486582  0.37528157  0.50801098
   0.62534276  0.50121845  0.46964341
   0.62486582  0.49985261  0.50801098
   0.62730910  0.62730910  0.47537272
   0.62497303  0.62497303  0.50804409
   0.62730910  0.74538180  0.47537272
   0.62497303  0.75005395  0.50804409
   0.62534276  0.87343879  0.46964341
   0.62486582  0.87528157  0.50801098
   0.74836700  0.00326601  0.47108096
   0.75012148 -0.00024297  0.50798944
   0.74538180  0.12730910  0.47537272
   0.75005395  0.12497303  0.50804409
   0.74836700  0.24836700  0.47108096
   0.75012148  0.25012148  0.50798944
   0.74990129  0.37504935  0.46902541
   0.75012972  0.37493514  0.50803077
   0.74836700  0.50326601  0.47108096
   0.75012148  0.49975703  0.50798944
   0.74538180  0.62730910  0.47537272
   0.75005395  0.62497303  0.50804409
   0.74836700  0.74836700  0.47108096
   0.75012148  0.75012148  0.50798944
   0.74990129  0.87504935  0.46902541
   0.75012972  0.87493514  0.50803077
   0.87343879  0.00121845  0.46964341
   0.87528157 -0.00014739  0.50801098
   0.87343879  0.12534276  0.46964341
   0.87528157  0.12486582  0.50801098
   0.87504935  0.24990129  0.46902541
   0.87493514  0.25012972  0.50803077
   0.87504935  0.37504935  0.46902541
   0.87493514  0.37493514  0.50803077
   0.87343879  0.50121845  0.46964341
   0.87528157  0.49985261  0.50801098
   0.87343879  0.62534276  0.46964341
   0.87528157  0.62486582  0.50801098
   0.87504935  0.74990129  0.46902541
   0.87493514  0.75012972  0.50803077
   0.87504935  0.87504935  0.46902541
   0.87493514  0.87493514  0.50803077
Direct configuration=     3
   0.44444463  0.44444466  0.06218839
   0.44443769  0.77778115  0.06218919
   0.44444460  0.11111075  0.06218839
   0.77778109  0.44443772  0.06218919
   0.77778115  0.77778115  0.06218919
   0.77778263  0.11110871  0.06219070
   0.11111063  0.44444466  0.06218839
   0.11110871  0.77778269  0.06219070
   0.11110860  0.11110871  0.06219070
   0.55555405  0.55555411  0.12439305
   0.55555405  0.88889185  0.12439305
   0.55555102  0.22222458  0.12439322
   0.88889185  0.55555411  0.12439305
   0.88888815  0.88888821  0.12439119
   0.88888821  0.22222370  0.12439119
   0.22222446  0.55555108  0.12439322
   0.22222358  0.88888821  0.12439119
   0.22222446  0.22222458  0.12439322
   0.66666663  0.66666663  0.18654506
   0.66666777 -0.00000449  0.18654741
   0.66666771  0.33333665  0.18654741
  -0.00000449  0.66666771  0.18654741