LAMMPS (24 Mar 2022)
OMP_NUM_THREADS environment is not set. Defaulting to 1 thread. (src/comm.cpp:98)
  using 1 OpenMP thread(s) per MPI task
Reading data file ...
  orthogonal box = (0 0 0) to (14.5 14.5 14.5)
  1 by 1 by 1 MPI processor grid
  reading atoms ...
  250 atoms
  read_data CPU = 0.001 seconds
WARNING: Using 'neigh_modify every 1 delay 0 check yes' setting during minimization (src/min.cpp:187)
Neighbor list info ...
  update every 1 steps, delay 0 steps, check yes
  max neighbors/atom: 2000, page size: 100000
  master list distance cutoff = 8.28721
  ghost atom cutoff = 8.28721
  binsize = 4.143605, bins = 4 4 4
  1 neighbor lists, perpetual/occasional/extra = 1 0 0
  (1) pair eam/alloy, perpetual
      attributes: half, newton on
      pair build: half/bin/atomonly/newton
      stencil: half/bin/3d
      bin: standard
Setting up cg style minimization ...
  Unit style    : metal
  Current step  : 0
Per MPI rank memory allocation (min/avg/max) = 4.527 | 4.527 | 4.527 Mbytes
   Step          Temp          E_pair         E_mol          TotEng         Press     
         0   0             -1119.712       0             -1119.712      -95422.235    
Loop time of 3.072e-06 on 1 procs for 0 steps with 250 atoms

130.2% CPU use with 1 MPI tasks x 1 OpenMP threads

Minimization stats:
  Stopping criterion = max iterations
  Energy initial, next-to-last, final = 
     -1119.71201303459                  0  -1119.71201303459
  Force two-norm initial, final = 4.0412399 4.0412399
  Force max component initial, final = 2.1867673 2.1867673
  Final line search alpha, max atom move = 0 0
  Iterations, force evaluations = 0 0

MPI task timing breakdown:
Section |  min time  |  avg time  |  max time  |%varavg| %total
---------------------------------------------------------------
Pair    | 0          | 0          | 0          |   0.0 |  0.00
Neigh   | 0          | 0          | 0          |   0.0 |  0.00
Comm    | 0          | 0          | 0          |   0.0 |  0.00
Output  | 0          | 0          | 0          |   0.0 |  0.00
Modify  | 0          | 0          | 0          |   0.0 |  0.00
Other   |            | 3.072e-06  |            |       |100.00

Nlocal:            250 ave         250 max         250 min
Histogram: 1 0 0 0 0 0 0 0 0 0
Nghost:           2081 ave        2081 max        2081 min
Histogram: 1 0 0 0 0 0 0 0 0 0
Neighs:          22472 ave       22472 max       22472 min
Histogram: 1 0 0 0 0 0 0 0 0 0

Total # of neighbors = 22472
Ave neighs/atom = 89.888
Neighbor list builds = 0
Dangerous builds = 0
Setting up Verlet run ...
  Unit style    : metal
  Current step  : 0
  Time step     : 0.01
Per MPI rank memory allocation (min/avg/max) = 4.412 | 4.412 | 4.412 Mbytes
   Step          Temp          E_pair         E_mol          TotEng         Press     
         0   300           -1119.712       0             -1110.0563     -92039.248    
       100   162.84924     -1115.0542      0             -1109.8128     -86641.702    
       200   161.95422     -1115.0427      0             -1109.83       -86342.47     
       300   176.6375      -1115.5287      0             -1109.8435     -87515.813    
       400   163.49119     -1115.0975      0             -1109.8354     -86236.383    
       500   164.65851     -1115.1407      0             -1109.841      -86184.686    
       600   171.35958     -1115.3366      0             -1109.8213     -86779.128    
       700   179.67919     -1115.6299      0             -1109.8468     -86768.968    
       800   155.71165     -1114.8202      0             -1109.8085     -85494        
       900   169.10128     -1115.2619      0             -1109.8192     -86838.039    
      1000   166.835       -1115.2133      0             -1109.8436     -86509.775    
      1100   169.42822     -1115.2867      0             -1109.8335     -86319.555    
      1200   173.50319     -1115.4314      0             -1109.847      -87149.374    
      1300   178.26253     -1115.5828      0             -1109.8453     -87218.287    
      1400   177.71721     -1115.5587      0             -1109.8387     -87297.905    
      1500   167.47302     -1115.2385      0             -1109.8483     -86920.426    
      1600   160.45165     -1114.9824      0             -1109.8181     -86557.047    
      1700   172.35688     -1115.3689      0             -1109.8215     -86982.766    
      1800   173.5781      -1115.4352      0             -1109.8485     -86931.639    
      1900   168.34795     -1115.2559      0             -1109.8375     -86796.309    
      2000   160.60537     -1114.9919      0             -1109.8227     -86597.526    
      2100   169.45817     -1115.2875      0             -1109.8334     -86774.24     
      2200   180.46175     -1115.6568      0             -1109.8485     -87095.488    
      2300   170.10211     -1115.3141      0             -1109.8393     -87011.694    
      2400   166.56763     -1115.1762      0             -1109.8151     -86705.713    
      2500   178.37669     -1115.5892      0             -1109.848      -87344.265    
      2600   172.16066     -1115.374       0             -1109.8329     -87088.807    
      2700   170.456       -1115.3133      0             -1109.8271     -86709.674    
      2800   166.21357     -1115.1749      0             -1109.8252     -86678.129    
      2900   168.2441      -1115.2406      0             -1109.8256     -86821.449    
      3000   168.01653     -1115.2396      0             -1109.8318     -86823.142    
      3100   163.14581     -1115.0864      0             -1109.8354     -86185.976    
      3200   167.99877     -1115.2442      0             -1109.837      -86195.02     
      3300   166.88224     -1115.1972      0             -1109.826      -86963.127    
      3400   170.7591      -1115.3206      0             -1109.8246     -86994.162    
      3500   162.69176     -1115.0595      0             -1109.8231     -86478.586    
      3600   162.40689     -1115.0391      0             -1109.8119     -86290.07     
      3700   170.90105     -1115.3351      0             -1109.8345     -87119.217    
      3800   169.79344     -1115.295       0             -1109.8301     -87034.226    
      3900   175.88951     -1115.5055      0             -1109.8444     -86944.738    
      4000   169.2574      -1115.2905      0             -1109.8428     -87222.2      
      4100   166.0104      -1115.171       0             -1109.8278     -86922.916    
      4200   168.54005     -1115.2558      0             -1109.8312     -86676.802    
      4300   159.75214     -1114.954       0             -1109.8123     -86351.975    
      4400   174.51035     -1115.4545      0             -1109.8377     -87443.368    
      4500   169.99861     -1115.301       0             -1109.8294     -86803.153    
      4600   157.26277     -1114.863       0             -1109.8013     -86294.487    
      4700   168.75103     -1115.2688      0             -1109.8374     -86875.649    
      4800   167.51967     -1115.2151      0             -1109.8234     -86915.414    
      4900   159.90024     -1114.9535      0             -1109.807      -86034.811    
      5000   171.27543     -1115.3492      0             -1109.8365     -87201.102    
      5100   172.12655     -1115.39        0             -1109.85       -87005.605    
      5200   161.51034     -1115.0176      0             -1109.8192     -86809.488    
      5300   165.1993      -1115.1385      0             -1109.8215     -86597.003    
      5400   168.61916     -1115.2461      0             -1109.819      -86747.657    
      5500   167.6368      -1115.2115      0             -1109.816      -86278.354    
      5600   165.12623     -1115.1252      0             -1109.8105     -86464.394    
      5700   165.83557     -1115.1497      0             -1109.8121     -86836.59     
      5800   164.6653      -1115.1188      0             -1109.819      -86790.234    
      5900   159.13835     -1114.9317      0             -1109.8097     -86083.549    
      6000   169.47332     -1115.2912      0             -1109.8365     -86877.485    
      6100   158.84795     -1114.9056      0             -1109.7929     -86317.164    
      6200   170.3963      -1115.3142      0             -1109.8299     -86299.912    
      6300   170.33438     -1115.3061      0             -1109.8238     -86416.961    
      6400   164.82932     -1115.1229      0             -1109.8177     -86903.816    
      6500   166.28045     -1115.1761      0             -1109.8242     -86142.546    
      6600   159.62839     -1114.9427      0             -1109.8049     -86400.504    
      6700   172.91468     -1115.4017      0             -1109.8363     -86796.835    
      6800   171.89134     -1115.3655      0             -1109.833      -87019.969    
      6900   172.40854     -1115.3835      0             -1109.8344     -86855.036    
      7000   170.6542      -1115.3157      0             -1109.8231     -86469.063    
      7100   164.5409      -1115.1098      0             -1109.814      -86599.68     
      7200   173.59552     -1115.4064      0             -1109.8191     -87177.134    
      7300   171.12684     -1115.3503      0             -1109.8424     -86753.786    
      7400   163.39391     -1115.0767      0             -1109.8178     -86927.999    
      7500   172.25269     -1115.3622      0             -1109.8181     -86854.332    
      7600   164.75647     -1115.1146      0             -1109.8118     -86486.638    
      7700   168.67803     -1115.257       0             -1109.8279     -87107.717    
      7800   157.50927     -1114.8803      0             -1109.8108     -86546.494    
      7900   165.97278     -1115.158       0             -1109.816      -86746.411    
      8000   160.60604     -1114.9797      0             -1109.8105     -86377.833    
      8100   160.60424     -1114.9739      0             -1109.8048     -86599.101    
      8200   172.69126     -1115.3795      0             -1109.8213     -86500.839    
      8300   164.68178     -1115.1064      0             -1109.806      -86073.454    
      8400   178.82797     -1115.6017      0             -1109.846      -87293.398    
      8500   168.51659     -1115.2528      0             -1109.8289     -86831.18     
      8600   161.96936     -1115.0367      0             -1109.8236     -86271.041    
      8700   170.89693     -1115.3323      0             -1109.8318     -86613.324    
      8800   173.13905     -1115.4024      0             -1109.8298     -86613.776    
      8900   168.14677     -1115.227       0             -1109.8151     -86643.044    
      9000   165.47619     -1115.1355      0             -1109.8095     -86807.267    
      9100   160.01037     -1114.9519      0             -1109.8019     -86349.7      
      9200   170.09097     -1115.2974      0             -1109.8229     -86484.829    
      9300   165.79311     -1115.1399      0             -1109.8037     -86888.097    
      9400   165.84283     -1115.1499      0             -1109.8121     -86975.237    
      9500   158.39753     -1114.8953      0             -1109.7971     -86616.331    
      9600   169.7286      -1115.2965      0             -1109.8337     -86530.908    
      9700   172.67915     -1115.385       0             -1109.8272     -86659.33     
      9800   173.27067     -1115.4025      0             -1109.8256     -86676.591    
      9900   172.79822     -1115.381       0             -1109.8193     -86890.666    
     10000   162.73061     -1115.0578      0             -1109.8202     -86174.584    
Loop time of 7.1374 on 1 procs for 10000 steps with 250 atoms

Performance: 1210.524 ns/day, 0.020 hours/ns, 1401.070 timesteps/s
99.9% CPU use with 1 MPI tasks x 1 OpenMP threads

MPI task timing breakdown:
Section |  min time  |  avg time  |  max time  |%varavg| %total
---------------------------------------------------------------
Pair    | 6.8262     | 6.8262     | 6.8262     |   0.0 | 95.64
Neigh   | 0          | 0          | 0          |   0.0 |  0.00
Comm    | 0.082728   | 0.082728   | 0.082728   |   0.0 |  1.16
Output  | 0.18299    | 0.18299    | 0.18299    |   0.0 |  2.56
Modify  | 0.022407   | 0.022407   | 0.022407   |   0.0 |  0.31
Other   |            | 0.02309    |            |       |  0.32

Nlocal:            250 ave         250 max         250 min
Histogram: 1 0 0 0 0 0 0 0 0 0
Nghost:           2081 ave        2081 max        2081 min
Histogram: 1 0 0 0 0 0 0 0 0 0
Neighs:          22472 ave       22472 max       22472 min
Histogram: 1 0 0 0 0 0 0 0 0 0

Total # of neighbors = 22472
Ave neighs/atom = 89.888
Neighbor list builds = 0
Dangerous builds = 0
System init for write_restart ...
Total wall time: 0:00:07
