       N       E                     dE             d eps       ncg     rms          rms(c)
DAV:   1     0.223657590340E+05    0.22366E+05   -0.98568E+05 12200   0.134E+03
DAV:   2     0.104044987863E+03   -0.22262E+05   -0.21270E+05 12152   0.469E+02
DAV:   3    -0.133444725580E+04   -0.14385E+04   -0.12113E+04 13704   0.131E+02
DAV:   4    -0.155462109424E+04   -0.22017E+03   -0.18746E+03 21096   0.488E+01
DAV:   5    -0.156712288059E+04   -0.12502E+02   -0.10459E+02 19808   0.116E+01    0.149E+02
DAV:   6    -0.194776400381E+04   -0.38064E+03   -0.27433E+03 15792   0.170E+02    0.290E+02
DAV:   7    -0.175274754815E+04    0.19502E+03   -0.10689E+03 13248   0.146E+02    0.235E+02
DAV:   8    -0.190287728674E+04   -0.15013E+03   -0.66655E+02 16216   0.127E+02    0.287E+02
DAV:   9    -0.213620535404E+04   -0.23333E+03   -0.21098E+02 13248   0.133E+02    0.319E+02
DAV:  10    -0.166544056473E+04    0.47076E+03   -0.30894E+02 17752   0.797E+01    0.200E+02
DAV:  11    -0.153683715282E+04    0.12860E+03   -0.31230E+02 14208   0.786E+01    0.164E+02
DAV:  12    -0.175372462149E+04   -0.21689E+03   -0.40314E+02 15504   0.130E+02    0.241E+02
DAV:  13    -0.154245626022E+04    0.21127E+03   -0.26374E+02 13056   0.791E+01    0.165E+02
DAV:  14    -0.145123965586E+04    0.91217E+02   -0.17063E+02 13168   0.816E+01    0.161E+02
DAV:  15    -0.148003298971E+04   -0.28793E+02   -0.12921E+02 13216   0.650E+01    0.172E+02
DAV:  16    -0.152744863312E+04   -0.47416E+02   -0.11056E+02 13176   0.618E+01    0.186E+02
DAV:  17    -0.145352177326E+04    0.73927E+02   -0.96894E+01 12880   0.540E+01    0.141E+02
DAV:  18    -0.143225516359E+04    0.21267E+02   -0.65491E+01 12912   0.476E+01    0.133E+02
DAV:  19    -0.144022539943E+04   -0.79702E+01   -0.51966E+01 12984   0.449E+01    0.156E+02
DAV:  20    -0.138897243650E+04    0.51253E+02   -0.35900E+01 12896   0.366E+01    0.112E+02
DAV:  21    -0.136260311194E+04    0.26369E+02   -0.26077E+01 12864   0.321E+01    0.905E+01
DAV:  22    -0.135497084566E+04    0.76323E+01   -0.17707E+01 12896   0.257E+01    0.824E+01
DAV:  23    -0.134832452730E+04    0.66463E+01   -0.13838E+01 12896   0.216E+01    0.709E+01
DAV:  24    -0.134636846336E+04    0.19561E+01   -0.11329E+01 12928   0.196E+01    0.702E+01
DAV:  25    -0.134179620310E+04    0.45723E+01   -0.89111E+00 12976   0.171E+01    0.619E+01
DAV:  26    -0.133834260216E+04    0.34536E+01   -0.54473E+00 13016   0.130E+01    0.569E+01
DAV:  27    -0.133655014054E+04    0.17925E+01   -0.39368E+00 13024   0.110E+01    0.575E+01
DAV:  28    -0.133405017303E+04    0.25000E+01   -0.33398E+00 13088   0.112E+01    0.548E+01
DAV:  29    -0.133113279113E+04    0.29174E+01   -0.31063E+00 13184   0.107E+01    0.470E+01
DAV:  30    -0.132896826730E+04    0.21645E+01   -0.26047E+00 13216   0.882E+00    0.382E+01
DAV:  31    -0.132886427392E+04    0.10399E+00   -0.26195E+00 13264   0.950E+00    0.403E+01
DAV:  32    -0.132903867857E+04   -0.17440E+00   -0.22307E+00 13280   0.899E+00    0.440E+01
DAV:  33    -0.132883811799E+04    0.20056E+00   -0.20454E+00 13280   0.788E+00    0.435E+01
DAV:  34    -0.132666148620E+04    0.21766E+01   -0.13530E+00 13280   0.622E+00    0.301E+01
DAV:  35    -0.132626304057E+04    0.39845E+00   -0.11918E+00 13328   0.648E+00    0.288E+01
DAV:  36    -0.132615695580E+04    0.10608E+00   -0.11611E+00 13376   0.701E+00    0.290E+01
DAV:  37    -0.132592445482E+04    0.23250E+00   -0.12256E+00 13376   0.685E+00    0.255E+01
DAV:  38    -0.132750225541E+04   -0.15778E+01   -0.15634E+00 13392   0.791E+00    0.357E+01
DAV:  39    -0.132691728132E+04    0.58497E+00   -0.15770E+00 13392   0.758E+00    0.326E+01
DAV:  40    -0.132660212211E+04    0.31516E+00   -0.10358E+00 13392   0.628E+00    0.344E+01
DAV:  41    -0.132689705729E+04   -0.29494E+00   -0.90640E-01 13392   0.539E+00    0.377E+01
DAV:  42    -0.132613244984E+04    0.76461E+00   -0.90948E-01 13376   0.528E+00    0.328E+01
DAV:  43    -0.132517912181E+04    0.95333E+00   -0.67728E-01 13376   0.447E+00    0.250E+01
DAV:  44    -0.132460127289E+04    0.57785E+00   -0.52710E-01 13408   0.369E+00    0.176E+01
DAV:  45    -0.132444145341E+04    0.15982E+00   -0.37571E-01 13376   0.334E+00    0.145E+01
DAV:  46    -0.132426195068E+04    0.17950E+00   -0.27437E-01 13376   0.267E+00    0.107E+01
DAV:  47    -0.132421786637E+04    0.44084E-01   -0.18383E-01 13408   0.243E+00    0.110E+01
DAV:  48    -0.132412895227E+04    0.88914E-01   -0.11613E-01 13440   0.174E+00    0.909E+00
DAV:  49    -0.132411549352E+04    0.13459E-01   -0.10999E-01 13376   0.172E+00    0.863E+00
DAV:  50    -0.132412060567E+04   -0.51122E-02   -0.12062E-01 13376   0.177E+00    0.839E+00
DAV:  51    -0.132418294393E+04   -0.62338E-01   -0.18608E-01 13376   0.241E+00    0.927E+00
DAV:  52    -0.132421220460E+04   -0.29261E-01   -0.14083E-01 13376   0.227E+00    0.108E+01
DAV:  53    -0.132422811605E+04   -0.15911E-01   -0.13477E-01 13376   0.214E+00    0.112E+01
DAV:  54    -0.132413861711E+04    0.89499E-01   -0.10523E-01 13369   0.189E+00    0.943E+00
DAV:  55    -0.132410395865E+04    0.34658E-01   -0.63017E-02 13369   0.151E+00    0.834E+00
DAV:  56    -0.132404613294E+04    0.57826E-01   -0.61924E-02 13328   0.147E+00    0.577E+00
DAV:  57    -0.132403359500E+04    0.12538E-01   -0.51440E-02 13417   0.137E+00    0.504E+00
DAV:  58    -0.132401463891E+04    0.18956E-01   -0.41939E-02 13400   0.123E+00    0.427E+00
DAV:  59    -0.132398879389E+04    0.25845E-01   -0.21418E-02 13313   0.862E-01    0.301E+00
DAV:  60    -0.132399524083E+04   -0.64469E-02   -0.15439E-02 13360   0.709E-01    0.335E+00
DAV:  61    -0.132401135980E+04   -0.16119E-01   -0.30791E-02 13384   0.102E+00    0.419E+00
DAV:  62    -0.132399271839E+04    0.18641E-01   -0.27062E-02 13376   0.881E-01    0.346E+00
DAV:  63    -0.132398766096E+04    0.50574E-02   -0.11625E-02 13568   0.584E-01    0.287E+00
DAV:  64    -0.132397684646E+04    0.10815E-01   -0.69225E-03 13416   0.476E-01    0.136E+00
DAV:  65    -0.132397523992E+04    0.16065E-02   -0.31221E-03 13432   0.313E-01    0.964E-01
DAV:  66    -0.132399949223E+04   -0.24252E-01   -0.11359E-02 14840   0.669E-01    0.341E+00
DAV:  67    -0.132397969407E+04    0.19798E-01   -0.11761E-02 14072   0.656E-01    0.144E+00
DAV:  68    -0.132397680066E+04    0.28934E-02   -0.36058E-03 13792   0.342E-01    0.864E-01
DAV:  69    -0.132397723002E+04   -0.42936E-03   -0.17323E-03 13632   0.228E-01    0.844E-01
DAV:  70    -0.132397790767E+04   -0.67765E-03   -0.14076E-03 13560   0.201E-01    0.803E-01
DAV:  71    -0.132398673331E+04   -0.88256E-02   -0.50220E-03 14088   0.424E-01    0.185E+00
DAV:  72    -0.132397970019E+04    0.70331E-02   -0.47218E-03 13880   0.410E-01    0.836E-01
DAV:  73    -0.132397907921E+04    0.62097E-03   -0.88839E-04 13680   0.168E-01    0.670E-01
DAV:  74    -0.132397946707E+04   -0.38786E-03   -0.52760E-04 13496   0.124E-01    0.580E-01
DAV:  75    -0.132398026676E+04   -0.79969E-03   -0.62336E-04 13408   0.133E-01    0.542E-01
DAV:  76    -0.132398405621E+04   -0.37895E-02   -0.17211E-03 14248   0.233E-01    0.110E+00
DAV:  77    -0.132398145158E+04    0.26046E-02   -0.14633E-03 13960   0.219E-01    0.511E-01
DAV:  78    -0.132398097336E+04    0.47822E-03   -0.31719E-04 13664   0.946E-02    0.396E-01
DAV:  79    -0.132398127549E+04   -0.30213E-03   -0.17695E-04 13440   0.718E-02    0.332E-01
DAV:  80    -0.132398184085E+04   -0.56536E-03   -0.17015E-04 14152   0.736E-02    0.225E-01
DAV:  81    -0.132398240825E+04   -0.56740E-03   -0.30911E-04 14744   0.101E-01    0.502E-01
DAV:  82    -0.132398213411E+04    0.27414E-03   -0.30593E-04 13880   0.948E-02    0.239E-01
DAV:  83    -0.132398240664E+04   -0.27254E-03   -0.91796E-05 13768   0.499E-02    0.192E-01
DAV:  84    -0.132398285426E+04   -0.44762E-03   -0.87849E-05 13792   0.489E-02    0.171E-01
DAV:  85    -0.132398315412E+04   -0.29985E-03   -0.74961E-05 13616   0.465E-02    0.164E-01
DAV:  86    -0.132398301915E+04    0.13497E-03   -0.51373E-05 12728   0.392E-02    0.140E-01
DAV:  87    -0.132398321548E+04   -0.19633E-03   -0.31208E-05 10880   0.279E-02    0.115E-01
DAV:  88    -0.132398361935E+04   -0.40387E-03   -0.36344E-05 12080   0.261E-02    0.111E-01
DAV:  89    -0.132398390279E+04   -0.28344E-03   -0.35440E-05 12152   0.278E-02    0.104E-01
DAV:  90    -0.132398408682E+04   -0.18403E-03   -0.28407E-05 10992   0.254E-02    0.781E-02
DAV:  91    -0.132398396320E+04    0.12363E-03   -0.35389E-05 11032   0.341E-02    0.139E-01
DAV:  92    -0.132398411814E+04   -0.15495E-03   -0.30860E-05 10808   0.319E-02    0.709E-02
DAV:  93    -0.132398432087E+04   -0.20272E-03   -0.22405E-05  9408   0.204E-02    0.919E-02
DAV:  94    -0.132398442722E+04   -0.10635E-03   -0.20699E-05 10192   0.184E-02    0.714E-02
DAV:  95    -0.132398452612E+04   -0.98897E-04   -0.19963E-05 10384   0.183E-02    0.859E-02
DAV:  96    -0.132398452289E+04    0.32284E-05   -0.22458E-05  8984   0.270E-02
   1 F= -.14213655E+04 E0= -.14206188E+04  d E =-.149336E+01
