 254 254   0   0
  0.3019211E+02  0.1718057E-08  0.1718057E-08  0.3000000E-08  0.5000000E-15
   1.0000000000000000E-004
  CAR 
 NiAl                                    
      5.90054395    -31.99820483  301      1.82363310      1.00000000
    -31.998  0.0000E+00  0.0000E+00
    -31.872  0.0000E+00  0.0000E+00
    -31.746  0.0000E+00  0.0000E+00
    -31.619  0.0000E+00  0.0000E+00
    -31.493  0.0000E+00  0.0000E+00
    -31.367  0.0000E+00  0.0000E+00
    -31.240  0.0000E+00  0.0000E+00
    -31.114  0.0000E+00  0.0000E+00
    -30.988  0.0000E+00  0.0000E+00
    -30.861  0.0000E+00  0.0000E+00
    -30.735  0.0000E+00  0.0000E+00
    -30.609  0.0000E+00  0.0000E+00
    -30.482  0.3490E-07  0.4409E-08
    -30.356  0.1719E+00  0.2172E-01
    -30.230  0.1407E+02  0.1799E+01
    -30.103  0.1594E+01  0.2000E+01
    -29.977  0.9750E-05  0.2000E+01
    -29.851  0.0000E+00  0.2000E+01
    -29.724  0.0000E+00  0.2000E+01
    -29.598  0.0000E+00  0.2000E+01
    -29.472  0.0000E+00  0.2000E+01
    -29.345  0.0000E+00  0.2000E+01
    -29.219  0.0000E+00  0.2000E+01
    -29.093  0.0000E+00  0.2000E+01
    -28.966  0.0000E+00  0.2000E+01
    -28.840  0.0000E+00  0.2000E+01
    -28.714  0.0000E+00  0.2000E+01
    -28.587  0.0000E+00  0.2000E+01
    -28.461  0.0000E+00  0.2000E+01
    -28.335  0.0000E+00  0.2000E+01
    -28.208  0.0000E+00  0.2000E+01
    -28.082  0.0000E+00  0.2000E+01
    -27.956  0.0000E+00  0.2000E+01
    -27.829  0.0000E+00  0.2000E+01
    -27.703  0.0000E+00  0.2000E+01
    -27.577  0.0000E+00  0.2000E+01
    -27.450  0.0000E+00  0.2000E+01
    -27.324  0.0000E+00  0.2000E+01
    -27.198  0.0000E+00  0.2000E+01
    -27.071  0.0000E+00  0.2000E+01
    -26.945  0.0000E+00  0.2000E+01
    -26.819  0.0000E+00  0.2000E+01
    -26.692  0.0000E+00  0.2000E+01
    -26.566  0.0000E+00  0.2000E+01
    -26.440  0.0000E+00  0.2000E+01
    -26.313  0.0000E+00  0.2000E+01
    -26.187  0.0000E+00  0.2000E+01
    -26.061  0.0000E+00  0.2000E+01
    -25.934  0.0000E+00  0.2000E+01
    -25.808  0.0000E+00  0.2000E+01
    -25.682  0.0000E+00  0.2000E+01
    -25.555  0.0000E+00  0.2000E+01
    -25.429  0.0000E+00  0.2000E+01
    -25.303  0.0000E+00  0.2000E+01
    -25.176  0.0000E+00  0.2000E+01
    -25.050  0.0000E+00  0.2000E+01
    -24.924  0.0000E+00  0.2000E+01
    -24.797  0.0000E+00  0.2000E+01
    -24.671  0.0000E+00  0.2000E+01
    -24.545  0.0000E+00  0.2000E+01
    -24.418  0.0000E+00  0.2000E+01
    -24.292  0.0000E+00  0.2000E+01
    -24.166  0.0000E+00  0.2000E+01
    -24.039  0.0000E+00  0.2000E+01
    -23.913  0.0000E+00  0.2000E+01
    -23.787  0.0000E+00  0.2000E+01
    -23.660  0.0000E+00  0.2000E+01
    -23.534  0.0000E+00  0.2000E+01
    -23.408  0.0000E+00  0.2000E+01
    -23.281  0.0000E+00  0.2000E+01
    -23.155  0.0000E+00  0.2000E+01
    -23.029  0.0000E+00  0.2000E+01
    -22.903  0.0000E+00  0.2000E+01
    -22.776  0.0000E+00  0.2000E+01
    -22.650  0.0000E+00  0.2000E+01
    -22.524  0.0000E+00  0.2000E+01
    -22.397  0.0000E+00  0.2000E+01
    -22.271  0.0000E+00  0.2000E+01
    -22.145  0.0000E+00  0.2000E+01
    -22.018  0.0000E+00  0.2000E+01
    -21.892  0.0000E+00  0.2000E+01
    -21.766  0.0000E+00  0.2000E+01
    -21.639  0.0000E+00  0.2000E+01
    -21.513  0.0000E+00  0.2000E+01
    -21.387  0.0000E+00  0.2000E+01
    -21.260  0.0000E+00  0.2000E+01
    -21.134  0.0000E+00  0.2000E+01
    -21.008  0.0000E+00  0.2000E+01
    -20.881  0.0000E+00  0.2000E+01
    -20.755  0.0000E+00  0.2000E+01
    -20.629  0.0000E+00  0.2000E+01
    -20.502  0.0000E+00  0.2000E+01
    -20.376  0.0000E+00  0.2000E+01
    -20.250  0.0000E+00  0.2000E+01
    -20.123  0.0000E+00  0.2000E+01
    -19.997  0.0000E+00  0.2000E+01
    -19.871  0.0000E+00  0.2000E+01
    -19.744  0.0000E+00  0.2000E+01
    -19.618  0.0000E+00  0.2000E+01
    -19.492  0.0000E+00  0.2000E+01
    -19.365  0.0000E+00  0.2000E+01
    -19.239  0.0000E+00  0.2000E+01
    -19.113  0.0000E+00  0.2000E+01
    -18.986  0.0000E+00  0.2000E+01
    -18.860  0.0000E+00  0.2000E+01
    -18.734  0.0000E+00  0.2000E+01
    -18.607  0.0000E+00  0.2000E+01
    -18.481  0.0000E+00  0.2000E+01
    -18.355  0.0000E+00  0.2000E+01
    -18.228  0.0000E+00  0.2000E+01
    -18.102  0.0000E+00  0.2000E+01
    -17.976  0.0000E+00  0.2000E+01
    -17.849  0.0000E+00  0.2000E+01
    -17.723  0.0000E+00  0.2000E+01
    -17.597  0.0000E+00  0.2000E+01
    -17.470  0.0000E+00  0.2000E+01
    -17.344  0.0000E+00  0.2000E+01
    -17.218  0.0000E+00  0.2000E+01
    -17.091  0.0000E+00  0.2000E+01
    -16.965  0.0000E+00  0.2000E+01
    -16.839  0.0000E+00  0.2000E+01
    -16.712  0.0000E+00  0.2000E+01
    -16.586  0.0000E+00  0.2000E+01
    -16.460  0.0000E+00  0.2000E+01
    -16.333  0.0000E+00  0.2000E+01
    -16.207  0.0000E+00  0.2000E+01
    -16.081  0.0000E+00  0.2000E+01
    -15.954  0.0000E+00  0.2000E+01
    -15.828  0.0000E+00  0.2000E+01
    -15.702  0.0000E+00  0.2000E+01
    -15.575  0.0000E+00  0.2000E+01
    -15.449  0.0000E+00  0.2000E+01
    -15.323  0.0000E+00  0.2000E+01
    -15.196  0.0000E+00  0.2000E+01
    -15.070  0.0000E+00  0.2000E+01
    -14.944  0.0000E+00  0.2000E+01
    -14.817  0.0000E+00  0.2000E+01
    -14.691  0.0000E+00  0.2000E+01
    -14.565  0.0000E+00  0.2000E+01
    -14.438  0.1086E-07  0.2000E+01
    -14.312  0.1024E+00  0.2013E+01
    -14.186  0.1354E+02  0.3723E+01
    -14.059  0.2191E+01  0.4000E+01
    -13.933  0.2496E-04  0.4000E+01
    -13.807  0.0000E+00  0.4000E+01
    -13.680  0.0000E+00  0.4000E+01
    -13.554  0.0000E+00  0.4000E+01
    -13.428  0.0000E+00  0.4000E+01
    -13.301  0.0000E+00  0.4000E+01
    -13.175  0.0000E+00  0.4000E+01
    -13.049  0.0000E+00  0.4000E+01
    -12.923  0.0000E+00  0.4000E+01
    -12.796  0.0000E+00  0.4000E+01
    -12.670  0.0000E+00  0.4000E+01
    -12.544  0.0000E+00  0.4000E+01
    -12.417  0.0000E+00  0.4000E+01
    -12.291  0.0000E+00  0.4000E+01
    -12.165  0.0000E+00  0.4000E+01
    -12.038  0.0000E+00  0.4000E+01
    -11.912  0.0000E+00  0.4000E+01
    -11.786  0.0000E+00  0.4000E+01
    -11.659  0.0000E+00  0.4000E+01
    -11.533  0.0000E+00  0.4000E+01
    -11.407  0.0000E+00  0.4000E+01
    -11.280  0.0000E+00  0.4000E+01
    -11.154  0.0000E+00  0.4000E+01
    -11.028  0.0000E+00  0.4000E+01
    -10.901  0.0000E+00  0.4000E+01
    -10.775  0.0000E+00  0.4000E+01
    -10.649  0.1655E-09  0.4000E+01
    -10.522  0.1397E-01  0.4002E+01
    -10.396  0.1062E+02  0.5344E+01
    -10.270  0.5204E+01  0.6001E+01
    -10.143  0.1013E+02  0.7281E+01
    -10.017  0.5695E+01  0.8000E+01
     -9.891  0.6691E-03  0.8000E+01
     -9.764  0.4926E-12  0.8000E+01
     -9.638  0.0000E+00  0.8000E+01
     -9.512  0.0000E+00  0.8000E+01
     -9.385  0.2197E-15  0.8000E+01
     -9.259  0.5129E-05  0.8000E+01
     -9.133  0.5135E+00  0.8065E+01
     -9.006  0.3703E+01  0.8533E+01
     -8.880  0.2123E+02  0.1121E+02
     -8.754  0.3369E+01  0.1164E+02
     -8.627  0.8203E+01  0.1268E+02
     -8.501  0.4171E+02  0.1795E+02
     -8.375  0.2258E+02  0.2080E+02
     -8.248  0.1229E+02  0.2235E+02
     -8.122  0.3049E+02  0.2620E+02
     -7.996  0.2626E+02  0.2952E+02
     -7.869  0.6389E+02  0.3759E+02
     -7.743  0.7197E+01  0.3850E+02
     -7.617  0.1728E+02  0.4068E+02
     -7.490  0.7674E+02  0.5038E+02
     -7.364  0.2177E+02  0.5313E+02
     -7.238  0.1851E+02  0.5547E+02
     -7.111  0.2698E+02  0.5888E+02
     -6.985  0.3923E+02  0.6383E+02
     -6.859  0.8490E+02  0.7456E+02
     -6.732  0.3555E+02  0.7905E+02
     -6.606  0.4588E+02  0.8484E+02
     -6.480  0.6790E+02  0.9342E+02
     -6.353  0.2032E+02  0.9599E+02
     -6.227  0.1250E+01  0.9615E+02
     -6.101  0.5148E+02  0.1026E+03
     -5.974  0.8961E+02  0.1140E+03
     -5.848  0.7518E+02  0.1235E+03
     -5.722  0.3084E+02  0.1274E+03
     -5.595  0.8935E+02  0.1386E+03
     -5.469  0.5203E+02  0.1452E+03
     -5.343  0.2137E+02  0.1479E+03
     -5.216  0.6341E+02  0.1559E+03
     -5.090  0.5714E+02  0.1631E+03
     -4.964  0.7845E+02  0.1731E+03
     -4.837  0.3927E+02  0.1780E+03
     -4.711  0.3870E+02  0.1829E+03
     -4.585  0.1171E+03  0.1977E+03
     -4.458  0.5331E+02  0.2044E+03
     -4.332  0.3563E+02  0.2089E+03
     -4.206  0.6482E+02  0.2171E+03
     -4.079  0.1196E+03  0.2322E+03
     -3.953  0.8701E+02  0.2432E+03
     -3.827  0.3654E+02  0.2478E+03
     -3.700  0.7239E+02  0.2570E+03
     -3.574  0.8537E+02  0.2678E+03
     -3.448  0.5797E+02  0.2751E+03
     -3.321  0.1894E+02  0.2775E+03
     -3.195  0.4982E+02  0.2838E+03
     -3.069  0.8806E+02  0.2949E+03
     -2.942  0.1008E+03  0.3076E+03
     -2.816  0.1158E+03  0.3223E+03
     -2.690  0.1739E+03  0.3442E+03
     -2.564  0.3873E+02  0.3491E+03
     -2.437  0.1198E+02  0.3507E+03
     -2.311  0.6806E+02  0.3592E+03
     -2.185  0.1178E+03  0.3741E+03
     -2.058  0.9267E+02  0.3858E+03
     -1.932  0.4289E+02  0.3913E+03
     -1.806  0.9845E+02  0.4037E+03
     -1.679  0.1346E+03  0.4207E+03
     -1.553  0.4126E+02  0.4259E+03
     -1.427  0.7657E+02  0.4356E+03
     -1.300  0.1251E+03  0.4514E+03
     -1.174  0.1156E+03  0.4660E+03
     -1.048  0.9769E+02  0.4783E+03
     -0.921  0.7370E+02  0.4876E+03
     -0.795  0.1224E+03  0.5031E+03
     -0.669  0.8772E+02  0.5142E+03
     -0.542  0.4344E+02  0.5197E+03
     -0.416  0.1206E+03  0.5349E+03
     -0.290  0.1458E+03  0.5533E+03
     -0.163  0.1212E+03  0.5686E+03
     -0.037  0.4973E+02  0.5749E+03
      0.089  0.7646E+02  0.5846E+03
      0.216  0.8663E+02  0.5955E+03
      0.342  0.9661E+02  0.6077E+03
      0.468  0.7921E+02  0.6177E+03
      0.595  0.1276E+03  0.6339E+03
      0.721  0.7034E+02  0.6427E+03
      0.847  0.4371E+02  0.6483E+03
      0.974  0.1101E+03  0.6622E+03
      1.100  0.2094E+03  0.6886E+03
      1.226  0.1084E+03  0.7023E+03
      1.353  0.6698E+02  0.7108E+03
      1.479  0.8161E+02  0.7211E+03
      1.605  0.1288E+03  0.7374E+03
      1.732  0.1719E+03  0.7591E+03
      1.858  0.8256E+02  0.7695E+03
      1.984  0.7832E+02  0.7794E+03
      2.111  0.1323E+03  0.7961E+03
      2.237  0.8935E+02  0.8074E+03
      2.363  0.6439E+02  0.8155E+03
      2.490  0.9705E+02  0.8278E+03
      2.616  0.1006E+03  0.8405E+03
      2.742  0.1174E+03  0.8553E+03
      2.869  0.7456E+02  0.8648E+03
      2.995  0.2478E+03  0.8961E+03
      3.121  0.1563E+03  0.9158E+03
      3.248  0.6520E+02  0.9240E+03
      3.374  0.1136E+03  0.9384E+03
      3.500  0.1375E+03  0.9557E+03
      3.627  0.9127E+02  0.9673E+03
      3.753  0.1099E+03  0.9812E+03
      3.879  0.7194E+02  0.9903E+03
      4.006  0.1456E+03  0.1009E+04
      4.132  0.1060E+03  0.1022E+04
      4.258  0.1542E+02  0.1024E+04
      4.385  0.8963E-01  0.1024E+04
      4.511  0.1462E-07  0.1024E+04
      4.637  0.0000E+00  0.1024E+04
      4.764  0.0000E+00  0.1024E+04
      4.890  0.0000E+00  0.1024E+04
      5.016  0.0000E+00  0.1024E+04
      5.143  0.0000E+00  0.1024E+04
      5.269  0.0000E+00  0.1024E+04
      5.395  0.0000E+00  0.1024E+04
      5.522  0.0000E+00  0.1024E+04
      5.648  0.0000E+00  0.1024E+04
      5.774  0.0000E+00  0.1024E+04
      5.901  0.0000E+00  0.1024E+04
