LAMMPS (24 Mar 2022)
OMP_NUM_THREADS environment is not set. Defaulting to 1 thread. (src/comm.cpp:98)
  using 1 OpenMP thread(s) per MPI task
Reading data file ...
  triclinic box = (0 0 0) to (17.180573 14.878813 30) with tilt (8.5902867 0 0)
  1 by 1 by 1 MPI processor grid
  reading atoms ...
  252 atoms
  read_data CPU = 0.001 seconds
WARNING: Using 'neigh_modify every 1 delay 0 check yes' setting during minimization (src/min.cpp:187)
Neighbor list info ...
  update every 1 steps, delay 0 steps, check yes
  max neighbors/atom: 2000, page size: 100000
  master list distance cutoff = 8.28721
  ghost atom cutoff = 8.28721
  binsize = 4.143605, bins = 7 4 8
  1 neighbor lists, perpetual/occasional/extra = 1 0 0
  (1) pair eam/alloy, perpetual
      attributes: half, newton on
      pair build: half/bin/newton/tri
      stencil: half/bin/3d/tri
      bin: standard
Setting up cg style minimization ...
  Unit style    : metal
  Current step  : 0
Per MPI rank memory allocation (min/avg/max) = 4.505 | 4.505 | 4.505 Mbytes
   Step          Temp          E_pair         E_mol          TotEng         Press     
         0   0             -818.8522       0             -818.8522      -3040.5135    
Loop time of 3.079e-06 on 1 procs for 0 steps with 252 atoms

97.4% CPU use with 1 MPI tasks x 1 OpenMP threads

Minimization stats:
  Stopping criterion = max iterations
  Energy initial, next-to-last, final = 
     -818.852196159913                  0  -818.852196159913
  Force two-norm initial, final = 1.1363538 1.1363538
  Force max component initial, final = 0.10422442 0.10422442
  Final line search alpha, max atom move = 0 0
  Iterations, force evaluations = 0 0

MPI task timing breakdown:
Section |  min time  |  avg time  |  max time  |%varavg| %total
---------------------------------------------------------------
Pair    | 0          | 0          | 0          |   0.0 |  0.00
Neigh   | 0          | 0          | 0          |   0.0 |  0.00
Comm    | 0          | 0          | 0          |   0.0 |  0.00
Output  | 0          | 0          | 0          |   0.0 |  0.00
Modify  | 0          | 0          | 0          |   0.0 |  0.00
Other   |            | 3.079e-06  |            |       |100.00

Nlocal:            252 ave         252 max         252 min
Histogram: 1 0 0 0 0 0 0 0 0 0
Nghost:           1438 ave        1438 max        1438 min
Histogram: 1 0 0 0 0 0 0 0 0 0
Neighs:          14400 ave       14400 max       14400 min
Histogram: 1 0 0 0 0 0 0 0 0 0

Total # of neighbors = 14400
Ave neighs/atom = 57.142857
Neighbor list builds = 0
Dangerous builds = 0
Setting up Verlet run ...
  Unit style    : metal
  Current step  : 0
  Time step     : 0.01
Per MPI rank memory allocation (min/avg/max) = 4.39 | 4.39 | 4.39 Mbytes
   Step          Temp          E_pair         E_mol          TotEng         Press     
         0   300           -818.8522       0             -809.11891     -1684.8512    
       100   155.93387     -813.97814      0             -808.91898      426.36262    
       200   146.21578     -813.65022      0             -808.90635      74.691724    
       300   163.59183     -814.23215      0             -808.92453     -1686.8972    
       400   143.5049      -813.55946      0             -808.90354     -3239.3501    
       500   157.44664     -814.03149      0             -808.92324     -4868.6959    
       600   149.30282     -813.76533      0             -808.9213      -6119.0742    
       700   144.68319     -813.6069       0             -808.91276     -6075.4414    
       800   151.35021     -813.82475      0             -808.91429     -5309.4531    
       900   154.24575     -813.91678      0             -808.91238     -4324.2017    
      1000   153.88434     -813.91573      0             -808.92306     -3034.2091    
      1100   157.04796     -814.01747      0             -808.92216     -1918.6408    
      1200   144.92074     -813.61026      0             -808.90841     -1289.6373    
      1300   144.99856     -813.60582      0             -808.90144     -1212.7374    
      1400   157.53689     -814.0451       0             -808.93392     -2051.4806    
      1500   154.44554     -813.93169      0             -808.92082     -2786.7555    
      1600   154.09424     -813.92566      0             -808.92618     -3863.3803    
      1700   164.58826     -814.2714       0             -808.93145     -5048.2622    
      1800   141.12255     -813.48085      0             -808.90222     -5038.9402    
      1900   145.02667     -813.62027      0             -808.91498     -4841.1025    
      2000   155.47272     -813.95354      0             -808.90934     -4505.5742    
      2100   153.93688     -813.91246      0             -808.91808     -3556.1983    
      2200   148.33465     -813.72328      0             -808.91067     -2711.0776    
      2300   146.86413     -813.67199      0             -808.90708     -2258.3624    
      2400   143.80793     -813.57984      0             -808.91409     -1874.7117    
      2500   158.7611      -814.07245      0             -808.92156     -1855.4704    
      2600   154.08928     -813.91808      0             -808.91876     -1971.2581    
      2700   157.01854     -814.01652      0             -808.92216     -2482.065     
      2800   153.21163     -813.88873      0             -808.91788     -3371.7072    
      2900   160.61445     -814.13493      0             -808.92391     -4199.4801    
      3000   156.57334     -813.99726      0             -808.91735     -4731.1433    
      3100   147.10801     -813.68035      0             -808.90753     -4873.0284    
      3200   153.80841     -813.9058       0             -808.91559     -4714.7968    
      3300   154.15889     -813.91676      0             -808.91519     -4218.3115    
      3400   153.38235     -813.88642      0             -808.91003     -3070.1794    
      3500   148.14748     -813.71493      0             -808.90839     -2254.57      
      3600   150.13984     -813.77889      0             -808.90771     -1670.8772    
      3700   144.99139     -813.60388      0             -808.89973     -1289.1179    
      3800   147.32447     -813.67975      0             -808.89991     -1717.1625    
      3900   150.66124     -813.79142      0             -808.90332     -2740.7162    
      4000   158.23831     -814.05849      0             -808.92456     -3260.6061    
      4100   153.74175     -813.89279      0             -808.90474     -4287.8389    
      4200   142.72227     -813.53566      0             -808.90514     -3994.9555    
      4300   141.72396     -813.50005      0             -808.90192     -3934.3672    
      4400   149.0463      -813.74669      0             -808.91099     -3614.5068    
      4500   154.00213     -813.90967      0             -808.91318     -3201.9143    
      4600   144.45421     -813.58727      0             -808.90055     -2423.1684    
      4700   150.22562     -813.77599      0             -808.90202     -2197.3582    
      4800   159.57415     -814.09195      0             -808.91468     -2328.1512    
      4900   158.2812      -814.04498      0             -808.90966     -2782.6134    
      5000   154.13031     -813.91521      0             -808.91456     -3087.3281    
      5100   151.56638     -813.82632      0             -808.90886     -2857.419     
      5200   152.6908      -813.8667       0             -808.91275     -3113.8832    
      5300   153.50549     -813.89743      0             -808.91705     -3164.1751    
      5400   144.56434     -813.58346      0             -808.89317     -3235.9768    
      5500   150.60381     -813.80467      0             -808.91844     -3460.7967    
      5600   155.75772     -813.9688       0             -808.91535     -3643.8199    
      5700   147.98883     -813.71273      0             -808.91133     -3312.4035    
      5800   155.84149     -813.96898      0             -808.91281     -3515.0436    
      5900   150.27166     -813.78161      0             -808.90615     -3556.0625    
      6000   143.99199     -813.57195      0             -808.90023     -2860.3203    
      6100   153.40183     -813.88824      0             -808.91122     -3409.7099    
      6200   155.65143     -813.96632      0             -808.91632     -3154.2173    
      6300   146.8171      -813.6692       0             -808.90583     -3063.8252    
      6400   152.10418     -813.85492      0             -808.92001     -2988.2983    
      6500   159.53622     -814.09906      0             -808.92302     -3389.3643    
      6600   158.82979     -814.07597      0             -808.92284     -3264.8129    
      6700   155.29516     -813.94941      0             -808.91096     -3639.435     
      6800   159.04406     -814.07729      0             -808.91722     -3388.5471    
      6900   160.39622     -814.12029      0             -808.91635     -3349.5397    
      7000   159.32314     -814.09069      0             -808.92157     -3302.826     
      7100   150.68419     -813.79512      0             -808.90627     -3201.3789    
      7200   149.54405     -813.75511      0             -808.90325     -3486.5954    
      7300   159.26912     -814.08744      0             -808.92006     -3458.4738    
      7400   157.04799     -814.01452      0             -808.91921     -3490.432     
      7500   155.03618     -813.94694      0             -808.9169      -3312.9817    
      7600   151.91461     -813.84644      0             -808.91767     -2989.1195    
      7700   154.97512     -813.93535      0             -808.9073      -2935.3323    
      7800   144.03516     -813.57132      0             -808.8982      -3488.543     
      7900   148.90832     -813.73737      0             -808.90614     -3818.562     
      8000   150.88675     -813.79952      0             -808.90411     -3405.8414    
      8100   151.65971     -813.83566      0             -808.91517     -3217.4472    
      8200   144.758       -813.59264      0             -808.89607     -3004.7221    
      8300   156.73723     -814.00247      0             -808.91724     -3035.5995    
      8400   147.12115     -813.68664      0             -808.91339     -2835.6429    
      8500   156.40212     -813.98057      0             -808.90621     -2282.1821    
      8600   153.77312     -813.90359      0             -808.91452     -2677.2541    
      8700   149.69357     -813.76248      0             -808.90578     -2929.1718    
      8800   150.52521     -813.78465      0             -808.90097     -3479.2549    
      8900   151.97437     -813.83007      0             -808.89936     -3123.1769    
      9000   156.11956     -813.97445      0             -808.90926     -2950.2332    
      9100   151.08033     -813.81554      0             -808.91384     -2622.7509    
      9200   153.09515     -813.87619      0             -808.90912     -2902.5836    
      9300   151.95153     -813.83872      0             -808.90876     -3216.2729    
      9400   157.70051     -814.03741      0             -808.92092     -3371.8016    
      9500   151.82558     -813.83447      0             -808.9086      -3595.993     
      9600   144.28103     -813.59169      0             -808.91059     -3561.5199    
      9700   148.57904     -813.72696      0             -808.90642     -3575.9923    
      9800   158.33331     -814.05755      0             -808.92054     -3594.06      
      9900   158.24026     -814.05308      0             -808.91908     -3090.5351    
     10000   156.87156     -814.01394      0             -808.92435     -2682.6292    
Loop time of 4.63634 on 1 procs for 10000 steps with 252 atoms

Performance: 1863.539 ns/day, 0.013 hours/ns, 2156.873 timesteps/s
99.7% CPU use with 1 MPI tasks x 1 OpenMP threads

MPI task timing breakdown:
Section |  min time  |  avg time  |  max time  |%varavg| %total
---------------------------------------------------------------
Pair    | 4.3628     | 4.3628     | 4.3628     |   0.0 | 94.10
Neigh   | 0          | 0          | 0          |   0.0 |  0.00
Comm    | 0.05757    | 0.05757    | 0.05757    |   0.0 |  1.24
Output  | 0.1763     | 0.1763     | 0.1763     |   0.0 |  3.80
Modify  | 0.021861   | 0.021861   | 0.021861   |   0.0 |  0.47
Other   |            | 0.01781    |            |       |  0.38

Nlocal:            252 ave         252 max         252 min
Histogram: 1 0 0 0 0 0 0 0 0 0
Nghost:           1438 ave        1438 max        1438 min
Histogram: 1 0 0 0 0 0 0 0 0 0
Neighs:          14400 ave       14400 max       14400 min
Histogram: 1 0 0 0 0 0 0 0 0 0

Total # of neighbors = 14400
Ave neighs/atom = 57.142857
Neighbor list builds = 0
Dangerous builds = 0
System init for write_restart ...
Total wall time: 0:00:04
