 254 254   0   0
  0.2268316E+02  0.1514622E-08  0.1514622E-08  0.2900000E-08  0.5000000E-15
   1.0000000000000000E-004
  CAR 
 NiAl                                    
      5.89890230    -22.96635803  301     -0.61199758      1.00000000
    -22.966  0.0000E+00  0.0000E+00
    -22.870  0.0000E+00  0.0000E+00
    -22.774  0.0000E+00  0.0000E+00
    -22.678  0.0000E+00  0.0000E+00
    -22.581  0.0000E+00  0.0000E+00
    -22.485  0.0000E+00  0.0000E+00
    -22.389  0.0000E+00  0.0000E+00
    -22.293  0.0000E+00  0.0000E+00
    -22.197  0.0000E+00  0.0000E+00
    -22.100  0.0000E+00  0.0000E+00
    -22.004  0.0000E+00  0.0000E+00
    -21.908  0.7286E-11  0.7010E-12
    -21.812  0.8605E-04  0.8280E-05
    -21.716  0.8573E+00  0.8249E-01
    -21.619  0.1656E+02  0.1675E+01
    -21.523  0.3372E+01  0.2000E+01
    -21.427  0.2185E-02  0.2000E+01
    -21.331  0.1345E-08  0.2000E+01
    -21.234  0.0000E+00  0.2000E+01
    -21.138  0.0000E+00  0.2000E+01
    -21.042  0.0000E+00  0.2000E+01
    -20.946  0.0000E+00  0.2000E+01
    -20.850  0.0000E+00  0.2000E+01
    -20.753  0.0000E+00  0.2000E+01
    -20.657  0.0000E+00  0.2000E+01
    -20.561  0.0000E+00  0.2000E+01
    -20.465  0.0000E+00  0.2000E+01
    -20.368  0.0000E+00  0.2000E+01
    -20.272  0.0000E+00  0.2000E+01
    -20.176  0.0000E+00  0.2000E+01
    -20.080  0.0000E+00  0.2000E+01
    -19.984  0.0000E+00  0.2000E+01
    -19.887  0.0000E+00  0.2000E+01
    -19.791  0.0000E+00  0.2000E+01
    -19.695  0.0000E+00  0.2000E+01
    -19.599  0.0000E+00  0.2000E+01
    -19.503  0.0000E+00  0.2000E+01
    -19.406  0.0000E+00  0.2000E+01
    -19.310  0.0000E+00  0.2000E+01
    -19.214  0.0000E+00  0.2000E+01
    -19.118  0.0000E+00  0.2000E+01
    -19.021  0.0000E+00  0.2000E+01
    -18.925  0.0000E+00  0.2000E+01
    -18.829  0.0000E+00  0.2000E+01
    -18.733  0.0000E+00  0.2000E+01
    -18.637  0.0000E+00  0.2000E+01
    -18.540  0.0000E+00  0.2000E+01
    -18.444  0.0000E+00  0.2000E+01
    -18.348  0.0000E+00  0.2000E+01
    -18.252  0.0000E+00  0.2000E+01
    -18.155  0.0000E+00  0.2000E+01
    -18.059  0.0000E+00  0.2000E+01
    -17.963  0.0000E+00  0.2000E+01
    -17.867  0.0000E+00  0.2000E+01
    -17.771  0.0000E+00  0.2000E+01
    -17.674  0.0000E+00  0.2000E+01
    -17.578  0.0000E+00  0.2000E+01
    -17.482  0.0000E+00  0.2000E+01
    -17.386  0.0000E+00  0.2000E+01
    -17.290  0.0000E+00  0.2000E+01
    -17.193  0.0000E+00  0.2000E+01
    -17.097  0.0000E+00  0.2000E+01
    -17.001  0.0000E+00  0.2000E+01
    -16.905  0.0000E+00  0.2000E+01
    -16.808  0.0000E+00  0.2000E+01
    -16.712  0.0000E+00  0.2000E+01
    -16.616  0.0000E+00  0.2000E+01
    -16.520  0.0000E+00  0.2000E+01
    -16.424  0.0000E+00  0.2000E+01
    -16.327  0.0000E+00  0.2000E+01
    -16.231  0.0000E+00  0.2000E+01
    -16.135  0.0000E+00  0.2000E+01
    -16.039  0.0000E+00  0.2000E+01
    -15.942  0.0000E+00  0.2000E+01
    -15.846  0.0000E+00  0.2000E+01
    -15.750  0.0000E+00  0.2000E+01
    -15.654  0.0000E+00  0.2000E+01
    -15.558  0.0000E+00  0.2000E+01
    -15.461  0.0000E+00  0.2000E+01
    -15.365  0.0000E+00  0.2000E+01
    -15.269  0.0000E+00  0.2000E+01
    -15.173  0.5450E-11  0.2000E+01
    -15.077  0.7150E-04  0.2000E+01
    -14.980  0.7871E+00  0.2076E+01
    -14.884  0.1642E+02  0.3656E+01
    -14.788  0.3577E+01  0.4000E+01
    -14.692  0.2551E-02  0.4000E+01
    -14.595  0.1742E-08  0.4000E+01
    -14.499  0.0000E+00  0.4000E+01
    -14.403  0.0000E+00  0.4000E+01
    -14.307  0.0000E+00  0.4000E+01
    -14.211  0.0000E+00  0.4000E+01
    -14.114  0.0000E+00  0.4000E+01
    -14.018  0.0000E+00  0.4000E+01
    -13.922  0.0000E+00  0.4000E+01
    -13.826  0.0000E+00  0.4000E+01
    -13.729  0.0000E+00  0.4000E+01
    -13.633  0.0000E+00  0.4000E+01
    -13.537  0.0000E+00  0.4000E+01
    -13.441  0.0000E+00  0.4000E+01
    -13.345  0.0000E+00  0.4000E+01
    -13.248  0.0000E+00  0.4000E+01
    -13.152  0.0000E+00  0.4000E+01
    -13.056  0.0000E+00  0.4000E+01
    -12.960  0.0000E+00  0.4000E+01
    -12.864  0.0000E+00  0.4000E+01
    -12.767  0.0000E+00  0.4000E+01
    -12.671  0.0000E+00  0.4000E+01
    -12.575  0.0000E+00  0.4000E+01
    -12.479  0.0000E+00  0.4000E+01
    -12.382  0.0000E+00  0.4000E+01
    -12.286  0.0000E+00  0.4000E+01
    -12.190  0.0000E+00  0.4000E+01
    -12.094  0.0000E+00  0.4000E+01
    -11.998  0.0000E+00  0.4000E+01
    -11.901  0.0000E+00  0.4000E+01
    -11.805  0.0000E+00  0.4000E+01
    -11.709  0.0000E+00  0.4000E+01
    -11.613  0.0000E+00  0.4000E+01
    -11.516  0.0000E+00  0.4000E+01
    -11.420  0.0000E+00  0.4000E+01
    -11.324  0.0000E+00  0.4000E+01
    -11.228  0.0000E+00  0.4000E+01
    -11.132  0.0000E+00  0.4000E+01
    -11.035  0.0000E+00  0.4000E+01
    -10.939  0.0000E+00  0.4000E+01
    -10.843  0.0000E+00  0.4000E+01
    -10.747  0.0000E+00  0.4000E+01
    -10.651  0.0000E+00  0.4000E+01
    -10.554  0.0000E+00  0.4000E+01
    -10.458  0.0000E+00  0.4000E+01
    -10.362  0.0000E+00  0.4000E+01
    -10.266  0.0000E+00  0.4000E+01
    -10.169  0.0000E+00  0.4000E+01
    -10.073  0.0000E+00  0.4000E+01
     -9.977  0.0000E+00  0.4000E+01
     -9.881  0.0000E+00  0.4000E+01
     -9.785  0.0000E+00  0.4000E+01
     -9.688  0.0000E+00  0.4000E+01
     -9.592  0.0000E+00  0.4000E+01
     -9.496  0.0000E+00  0.4000E+01
     -9.400  0.2770E-09  0.4000E+01
     -9.303  0.4862E-03  0.4000E+01
     -9.207  0.8060E+00  0.4078E+01
     -9.111  0.4162E+01  0.4478E+01
     -9.015  0.7460E+00  0.4550E+01
     -8.919  0.2203E+02  0.6669E+01
     -8.822  0.8620E+01  0.7499E+01
     -8.726  0.5865E-01  0.7504E+01
     -8.630  0.3238E+01  0.7816E+01
     -8.534  0.4558E+01  0.8254E+01
     -8.438  0.3390E+02  0.1152E+02
     -8.341  0.2567E+02  0.1399E+02
     -8.245  0.2197E+02  0.1610E+02
     -8.149  0.9335E+01  0.1700E+02
     -8.053  0.3709E+00  0.1703E+02
     -7.956  0.2056E+02  0.1901E+02
     -7.860  0.1077E+02  0.2005E+02
     -7.764  0.1760E+02  0.2174E+02
     -7.668  0.2382E+02  0.2403E+02
     -7.572  0.7417E+02  0.3117E+02
     -7.475  0.1381E+02  0.3250E+02
     -7.379  0.1364E-01  0.3250E+02
     -7.283  0.9936E+00  0.3260E+02
     -7.187  0.3952E+02  0.3640E+02
     -7.090  0.7813E+02  0.4391E+02
     -6.994  0.1359E+02  0.4522E+02
     -6.898  0.2299E+02  0.4743E+02
     -6.802  0.5899E+01  0.4800E+02
     -6.706  0.2945E+02  0.5084E+02
     -6.609  0.2737E+02  0.5347E+02
     -6.513  0.3939E+02  0.5726E+02
     -6.417  0.6885E+02  0.6388E+02
     -6.321  0.5205E+02  0.6889E+02
     -6.225  0.1244E+02  0.7009E+02
     -6.128  0.5100E+02  0.7500E+02
     -6.032  0.8420E+02  0.8310E+02
     -5.936  0.8016E+02  0.9081E+02
     -5.840  0.1235E+02  0.9200E+02
     -5.743  0.3551E+01  0.9234E+02
     -5.647  0.2150E+02  0.9441E+02
     -5.551  0.5709E+02  0.9990E+02
     -5.455  0.1518E+03  0.1145E+03
     -5.359  0.5964E+02  0.1202E+03
     -5.262  0.6320E+02  0.1263E+03
     -5.166  0.1127E+03  0.1372E+03
     -5.070  0.9895E+02  0.1467E+03
     -4.974  0.6867E+02  0.1533E+03
     -4.877  0.4815E+02  0.1579E+03
     -4.781  0.2430E+03  0.1813E+03
     -4.685  0.1811E+03  0.1987E+03
     -4.589  0.2121E+03  0.2191E+03
     -4.493  0.2334E+03  0.2416E+03
     -4.396  0.3113E+03  0.2716E+03
     -4.300  0.2472E+03  0.2953E+03
     -4.204  0.2854E+03  0.3228E+03
     -4.108  0.1789E+03  0.3400E+03
     -4.012  0.4264E+03  0.3810E+03
     -3.915  0.4278E+03  0.4222E+03
     -3.819  0.5196E+03  0.4722E+03
     -3.723  0.4214E+03  0.5127E+03
     -3.627  0.4556E+03  0.5566E+03
     -3.530  0.4130E+03  0.5963E+03
     -3.434  0.3584E+03  0.6308E+03
     -3.338  0.3328E+03  0.6628E+03
     -3.242  0.4368E+03  0.7048E+03
     -3.146  0.5235E+03  0.7552E+03
     -3.049  0.3881E+03  0.7926E+03
     -2.953  0.4311E+03  0.8340E+03
     -2.857  0.6216E+03  0.8938E+03
     -2.761  0.4866E+03  0.9407E+03
     -2.664  0.5542E+03  0.9940E+03
     -2.568  0.5347E+03  0.1045E+04
     -2.472  0.6928E+03  0.1112E+04
     -2.376  0.7276E+03  0.1182E+04
     -2.280  0.9085E+03  0.1270E+04
     -2.183  0.8204E+03  0.1348E+04
     -2.087  0.8567E+03  0.1431E+04
     -1.991  0.9293E+03  0.1520E+04
     -1.895  0.6026E+03  0.1578E+04
     -1.799  0.6038E+03  0.1636E+04
     -1.702  0.5496E+03  0.1689E+04
     -1.606  0.5277E+03  0.1740E+04
     -1.510  0.6055E+03  0.1798E+04
     -1.414  0.8393E+03  0.1879E+04
     -1.317  0.7221E+03  0.1949E+04
     -1.221  0.4677E+03  0.1994E+04
     -1.125  0.7531E+03  0.2066E+04
     -1.029  0.7544E+03  0.2139E+04
     -0.933  0.8880E+03  0.2224E+04
     -0.836  0.6266E+03  0.2284E+04
     -0.740  0.8936E+03  0.2370E+04
     -0.644  0.1244E+04  0.2490E+04
     -0.548  0.1126E+04  0.2598E+04
     -0.451  0.5240E+03  0.2649E+04
     -0.355  0.1919E+03  0.2667E+04
     -0.259  0.1234E+03  0.2679E+04
     -0.163  0.1555E+03  0.2694E+04
     -0.067  0.1681E+03  0.2710E+04
      0.030  0.9500E+02  0.2719E+04
      0.126  0.4011E+02  0.2723E+04
      0.222  0.5375E+02  0.2728E+04
      0.318  0.2974E+02  0.2731E+04
      0.415  0.1480E+03  0.2745E+04
      0.511  0.8128E+02  0.2753E+04
      0.607  0.9792E+02  0.2763E+04
      0.703  0.6907E+02  0.2769E+04
      0.799  0.1071E+03  0.2780E+04
      0.896  0.1453E+03  0.2794E+04
      0.992  0.8501E+02  0.2802E+04
      1.088  0.1047E+02  0.2803E+04
      1.184  0.6304E+02  0.2809E+04
      1.280  0.1357E+03  0.2822E+04
      1.377  0.2011E+02  0.2824E+04
      1.473  0.5004E+02  0.2829E+04
      1.569  0.1145E+03  0.2840E+04
      1.665  0.9119E+02  0.2849E+04
      1.762  0.7015E+02  0.2855E+04
      1.858  0.1005E+03  0.2865E+04
      1.954  0.8231E+02  0.2873E+04
      2.050  0.3395E+02  0.2876E+04
      2.146  0.7611E+02  0.2883E+04
      2.243  0.1394E+03  0.2897E+04
      2.339  0.8621E+02  0.2905E+04
      2.435  0.2378E+02  0.2907E+04
      2.531  0.6564E+02  0.2914E+04
      2.628  0.3362E+02  0.2917E+04
      2.724  0.1203E+02  0.2918E+04
      2.820  0.4213E+02  0.2922E+04
      2.916  0.8173E+02  0.2930E+04
      3.012  0.2220E+03  0.2951E+04
      3.109  0.1256E+03  0.2964E+04
      3.205  0.2510E+02  0.2966E+04
      3.301  0.2533E+02  0.2968E+04
      3.397  0.8046E+02  0.2976E+04
      3.493  0.7618E+02  0.2983E+04
      3.590  0.2172E+02  0.2986E+04
      3.686  0.9426E+02  0.2995E+04
      3.782  0.1015E+02  0.2996E+04
      3.878  0.2050E+02  0.2998E+04
      3.975  0.1049E+02  0.2999E+04
      4.071  0.4462E+02  0.3003E+04
      4.167  0.6055E+02  0.3009E+04
      4.263  0.3928E+02  0.3012E+04
      4.359  0.7107E+02  0.3019E+04
      4.456  0.6624E+02  0.3026E+04
      4.552  0.7276E+02  0.3033E+04
      4.648  0.5458E+02  0.3038E+04
      4.744  0.9274E+00  0.3038E+04
      4.841  0.5193E-04  0.3038E+04
      4.937  0.3680E-11  0.3038E+04
      5.033  0.0000E+00  0.3038E+04
      5.129  0.0000E+00  0.3038E+04
      5.225  0.0000E+00  0.3038E+04
      5.322  0.0000E+00  0.3038E+04
      5.418  0.0000E+00  0.3038E+04
      5.514  0.0000E+00  0.3038E+04
      5.610  0.0000E+00  0.3038E+04
      5.706  0.0000E+00  0.3038E+04
      5.803  0.0000E+00  0.3038E+04
      5.899  0.0000E+00  0.3038E+04
