  254  254    1    1
  0.2268316E+02  0.1514622E-08  0.1514622E-08  0.2900000E-08  0.5000000E-15
   1.0000000000000000E-004
  CAR 
 NiAl                                    
   2532      4   1519
 
  0.1262379E-14  0.1262379E-14  0.1262379E-14  0.2500000E+00
    1      -21.654301   1.000000
    2      -14.917566   1.000000
    3       -9.171387   1.000000
    4       -8.641815   1.000000
    5       -8.263740   1.000000
    6       -8.263682   1.000000
    7       -8.263644   1.000000
    8       -8.263581   1.000000
    9       -8.263538   1.000000
   10       -8.263517   1.000000
   11       -7.812959   1.000000
   12       -7.757795   1.000000
   13       -7.757550   1.000000
   14       -7.757544   1.000000
   15       -7.757526   1.000000
   16       -7.757500   1.000000
   17       -7.757374   1.000000
   18       -6.970719   1.000000
   19       -6.969278   1.000000
   20       -6.969178   1.000000
   21       -6.969172   1.000000
   22       -6.969019   1.000000
   23       -6.968898   1.000000
   24       -6.783165   1.000000
   25       -6.623261   1.000000
   26       -6.623237   1.000000
   27       -6.623232   1.000000
   28       -6.623188   1.000000
   29       -6.623155   1.000000
   30       -6.623089   1.000000
   31       -6.201151   1.000000
   32       -6.200535   1.000000
   33       -6.200515   1.000000
   34       -6.200510   1.000000
   35       -6.200430   1.000000
   36       -6.200394   1.000000
   37       -6.020820   1.000000
   38       -5.997365   1.000000
   39       -5.997273   1.000000
   40       -5.997253   1.000000
   41       -5.996941   1.000000
   42       -5.996852   1.000000
   43       -5.992614   1.000000
   44       -5.992606   1.000000
   45       -5.992570   1.000000
   46       -5.992550   1.000000
   47       -5.992517   1.000000
   48       -5.992490   1.000000
   49       -5.928089   1.000000
   50       -5.755672   1.000000
   51       -5.657712   1.000000
   52       -5.657587   1.000000
   53       -5.657539   1.000000
   54       -5.657471   1.000000
   55       -5.657463   1.000000
   56       -5.657348   1.000000
   57       -5.568408   1.000000
   58       -5.567396   1.000000
   59       -5.567373   1.000000
   60       -5.567242   1.000000
   61       -5.567200   1.000000
   62       -5.567137   1.000000
   63       -5.201188   1.000000
   64       -5.200205   1.000000
   65       -5.200170   1.000000
   66       -5.200082   1.000000
   67       -5.199987   1.000000
   68       -5.199911   1.000000
   69       -5.105130   1.000000
   70       -5.060470   1.000000
   71       -5.046784   1.000000
   72       -5.046603   1.000000
   73       -5.046452   1.000000
   74       -5.046437   1.000000
   75       -5.046099   1.000000
   76       -4.913790   1.000000
   77       -4.854819   1.000000
   78       -4.854779   1.000000
   79       -4.854726   1.000000
   80       -4.844282   1.000000
   81       -4.837094   1.000000
   82       -4.836148   1.000000
   83       -4.836136   1.000000
   84       -4.836061   1.000000
   85       -4.836033   1.000000
   86       -4.736979   1.000000
   87       -4.733131   1.000000
   88       -4.732342   1.000000
   89       -4.732239   1.000000
   90       -4.732219   1.000000
   91       -4.732185   1.000000
   92       -4.698819   1.000000
   93       -4.698726   1.000000
   94       -4.698602   1.000000
   95       -4.623017   1.000000
   96       -4.622746   1.000000
   97       -4.622623   1.000000
   98       -4.622595   1.000000
   99       -4.622566   1.000000
  100       -4.622526   1.000000
  101       -4.622511   1.000000
  102       -4.622495   1.000000
  103       -4.622483   1.000000
  104       -4.622459   1.000000
  105       -4.622444   1.000000
  106       -4.622412   1.000000
  107       -4.590840   1.000000
  108       -4.576889   1.000000
  109       -4.576734   1.000000
  110       -4.575343   1.000000
  111       -4.490683   1.000000
  112       -4.490362   1.000000
  113       -4.490328   1.000000
  114       -4.476191   1.000000
  115       -4.468537   1.000000
  116       -4.468487   1.000000
  117       -4.468452   1.000000
  118       -4.468429   1.000000
  119       -4.428374   1.000000
  120       -4.427321   1.000000
  121       -4.424215   1.000000
  122       -4.424156   1.000000
  123       -4.424138   1.000000
  124       -4.424101   1.000000
  125       -4.424064   1.000000
  126       -4.424053   1.000000
  127       -4.424031   1.000000
  128       -4.424016   1.000000
  129       -4.423986   1.000000
  130       -4.423957   1.000000
  131       -4.420978   1.000000
  132       -4.413868   1.000000
  133       -4.389726   1.000000
  134       -4.389674   1.000000
  135       -4.389656   1.000000
  136       -4.389614   1.000000
  137       -4.389607   1.000000
  138       -4.389574   1.000000
  139       -4.389548   1.000000
  140       -4.389512   1.000000
  141       -4.389501   1.000000
  142       -4.389472   1.000000
  143       -4.389468   1.000000
  144       -4.388780   1.000000
  145       -4.344870   1.000000
  146       -4.344728   1.000000
  147       -4.344721   1.000000
  148       -4.344688   1.000000
  149       -4.342615   1.000000
  150       -4.331735   1.000000
  151       -4.308518   1.000000
  152       -4.308403   1.000000
  153       -4.308383   1.000000
  154       -4.308342   1.000000
  155       -4.305210   1.000000
  156       -4.300258   1.000000
  157       -4.288647   1.000000
  158       -4.288498   1.000000
  159       -4.288248   1.000000
  160       -4.251780   1.000000
  161       -4.251725   1.000000
  162       -4.251709   1.000000
  163       -4.251650   1.000000
  164       -4.251634   1.000000
  165       -4.251536   1.000000
  166       -4.251492   1.000000
  167       -4.251481   1.000000
  168       -4.251455   1.000000
  169       -4.251443   1.000000
  170       -4.251398   1.000000
  171       -4.250745   1.000000
  172       -4.181518   1.000000
  173       -4.181469   1.000000
  174       -4.181424   1.000000
  175       -4.181400   1.000000
  176       -4.179269   1.000000
  177       -4.173048   1.000000
  178       -4.142374   1.000000
  179       -4.142335   1.000000
  180       -4.142157   1.000000
  181       -4.074138   1.000000
  182       -4.073764   1.000000
  183       -4.073434   1.000000
  184       -4.052048   1.000000
  185       -4.051835   1.000000
  186       -4.051809   1.000000
  187       -4.051735   1.000000
  188       -4.051681   1.000000
  189       -4.051568   1.000000
  190       -4.051541   1.000000
  191       -4.051523   1.000000
  192       -4.051500   1.000000
  193       -4.051480   1.000000
  194       -4.051359   1.000000
  195       -4.050892   1.000000
  196       -3.988592   1.000000
  197       -3.988447   1.000000
  198       -3.988167   1.000000
  199       -3.934294   1.000000
  200       -3.934186   1.000000
  201       -3.934037   1.000000
  202       -3.931820   1.000000
  203       -3.931765   1.000000
  204       -3.931686   1.000000
  205       -3.931642   1.000000
  206       -3.930922   1.000000
  207       -3.929470   1.000000
  208       -3.862511   1.000000
  209       -3.862454   1.000000
  210       -3.862401   1.000000
  211       -3.862377   1.000000
  212       -3.862357   1.000000
  213       -3.862341   1.000000
  214       -3.862314   1.000000
  215       -3.862288   1.000000
  216       -3.862229   1.000000
  217       -3.862171   1.000000
  218       -3.862143   1.000000
  219       -3.862121   1.000000
  220       -3.856347   1.000000
  221       -3.856288   1.000000
  222       -3.856196   1.000000
  223       -3.856157   1.000000
  224       -3.856092   1.000000
  225       -3.855893   1.000000
  226       -3.803687   1.000000
  227       -3.803393   1.000000
  228       -3.803353   1.000000
  229       -3.803317   1.000000
  230       -3.803271   1.000000
  231       -3.803230   1.000000
  232       -3.803155   1.000000
  233       -3.803125   1.000000
  234       -3.803076   1.000000
  235       -3.803011   1.000000
  236       -3.802715   1.000000
  237       -3.802627   1.000000
  238       -3.780341   1.000000
  239       -3.780242   1.000000
  240       -3.780232   1.000000
  241       -3.780111   1.000000
  242       -3.779805   1.000000
  243       -3.778222   1.000000
  244       -3.740906   1.000000
  245       -3.740831   1.000000
  246       -3.740783   1.000000
  247       -3.740753   1.000000
  248       -3.740606   1.000000
  249       -3.740330   1.000000
  250       -3.737117   1.000000
  251       -3.737077   1.000000
  252       -3.736891   1.000000
  253       -3.736885   1.000000
  254       -3.728711   1.000000
  255       -3.728586   1.000000
  256       -3.674642   1.000000
  257       -3.674434   1.000000
  258       -3.674318   1.000000
  259       -3.674286   1.000000
  260       -3.674222   1.000000
  261       -3.674203   1.000000
  262       -3.674195   1.000000
  263       -3.674149   1.000000
  264       -3.674118   1.000000
  265       -3.674059   1.000000
  266       -3.674034   1.000000
  267       -3.673984   1.000000
  268       -3.665630   1.000000
  269       -3.665521   1.000000
  270       -3.665420   1.000000
  271       -3.641091   1.000000
  272       -3.640976   1.000000
  273       -3.640974   1.000000
  274       -3.640896   1.000000
  275       -3.619077   1.000000
  276       -3.618860   1.000000
  277       -3.618747   1.000000
  278       -3.618638   1.000000
  279       -3.618600   1.000000
  280       -3.618166   1.000000
  281       -3.607464   1.000000
  282       -3.607365   1.000000
  283       -3.597052   1.000000
  284       -3.596986   1.000000
  285       -3.596914   1.000000
  286       -3.596883   1.000000
  287       -3.595290   1.000000
  288       -3.595193   1.000000
  289       -3.592176   1.000000
  290       -3.592042   1.000000
  291       -3.591900   1.000000
  292       -3.591860   1.000000
  293       -3.591757   1.000000
  294       -3.590863   1.000000
  295       -3.523476   1.000000
  296       -3.523321   1.000000
  297       -3.523187   1.000000
  298       -3.523180   1.000000
  299       -3.515893   1.000000
  300       -3.515866   1.000000
  301       -3.515775   1.000000
  302       -3.515720   1.000000
  303       -3.515671   1.000000
  304       -3.515632   1.000000
  305       -3.515615   1.000000
  306       -3.515588   1.000000
  307       -3.515490   1.000000
  308       -3.515460   1.000000
  309       -3.515043   1.000000
  310       -3.514998   1.000000
  311       -3.444314   1.000000
  312       -3.444276   1.000000
  313       -3.444172   1.000000
  314       -3.444128   1.000000
  315       -3.444047   1.000000
  316       -3.444004   1.000000
  317       -3.408661   1.000000
  318       -3.408463   1.000000
  319       -3.408352   1.000000
  320       -3.408082   1.000000
  321       -3.408049   1.000000
  322       -3.408003   1.000000
  323       -3.407961   1.000000
  324       -3.407920   1.000000
  325       -3.407901   1.000000
  326       -3.407832   1.000000
  327       -3.407792   1.000000
  328       -3.407739   1.000000
  329       -3.397784   1.000000
  330       -3.397488   1.000000
  331       -3.397465   1.000000
  332       -3.397431   1.000000
  333       -3.397331   1.000000
  334       -3.397328   1.000000
  335       -3.390434   1.000000
  336       -3.390297   1.000000
  337       -3.390201   1.000000
  338       -3.390114   1.000000
  339       -3.389901   1.000000
  340       -3.389072   1.000000
  341       -3.302254   1.000000
  342       -3.302074   1.000000
  343       -3.301897   1.000000
  344       -3.263052   1.000000
  345       -3.262718   1.000000
  346       -3.262540   1.000000
  347       -3.262491   1.000000
  348       -3.262421   1.000000
  349       -3.262345   1.000000
  350       -3.251365   1.000000
  351       -3.250981   1.000000
  352       -3.228345   1.000000
  353       -3.228150   1.000000
  354       -3.228119   1.000000
  355       -3.227980   1.000000
  356       -3.227895   1.000000
  357       -3.227855   1.000000
  358       -3.227828   1.000000
  359       -3.227690   1.000000
  360       -3.227630   1.000000
  361       -3.227548   1.000000
  362       -3.227481   1.000000
  363       -3.227067   1.000000
  364       -3.219038   1.000000
  365       -3.218626   1.000000
  366       -3.156952   1.000000
  367       -3.156923   1.000000
  368       -3.156834   1.000000
  369       -3.156691   1.000000
  370       -3.156363   1.000000
  371       -3.155665   1.000000
  372       -3.132234   1.000000
  373       -3.132009   1.000000
  374       -3.131693   1.000000
  375       -3.131543   1.000000
  376       -3.131500   1.000000
  377       -3.131424   1.000000
  378       -3.131146   1.000000
  379       -3.131030   1.000000
  380       -3.130973   1.000000
  381       -3.130923   1.000000
  382       -3.130883   1.000000
  383       -3.130589   1.000000
  384       -3.079899   1.000000
  385       -3.079582   1.000000
  386       -3.079415   1.000000
  387       -3.079363   1.000000
  388       -3.079344   1.000000
  389       -3.079280   1.000000
  390       -3.079256   1.000000
  391       -3.079218   1.000000
  392       -3.079173   1.000000
  393       -3.079076   1.000000
  394       -3.078908   1.000000
  395       -3.078626   1.000000
  396       -3.024458   1.000000
  397       -3.024425   1.000000
  398       -3.024259   1.000000
  399       -3.024211   1.000000
  400       -3.024151   1.000000
  401       -3.024060   1.000000
  402       -2.965165   1.000000
  403       -2.965058   1.000000
  404       -2.965000   1.000000
  405       -2.964964   1.000000
  406       -2.964354   1.000000
  407       -2.962556   1.000000
  408       -2.955297   1.000000
  409       -2.955043   1.000000
  410       -2.955023   1.000000
  411       -2.955004   1.000000
  412       -2.954931   1.000000
  413       -2.954472   1.000000
  414       -2.928792   1.000000
  415       -2.928769   1.000000
  416       -2.928650   1.000000
  417       -2.928599   1.000000
  418       -2.928572   1.000000
  419       -2.928399   1.000000
  420       -2.922292   1.000000
  421       -2.922147   1.000000
  422       -2.922082   1.000000
  423       -2.922055   1.000000
  424       -2.921638   1.000000
  425       -2.919997   1.000000
  426       -2.899091   1.000000
  427       -2.899076   1.000000
  428       -2.898916   1.000000
  429       -2.898759   1.000000
  430       -2.898507   1.000000
  431       -2.898016   1.000000
  432       -2.895257   1.000000
  433       -2.895104   1.000000
  434       -2.894828   1.000000
  435       -2.894801   1.000000
  436       -2.894780   1.000000
  437       -2.894730   1.000000
  438       -2.894719   1.000000
  439       -2.894673   1.000000
  440       -2.894667   1.000000
  441       -2.894603   1.000000
  442       -2.894418   1.000000
  443       -2.894021   1.000000
  444       -2.831343   1.000000
  445       -2.831156   1.000000
  446       -2.830751   1.000000
  447       -2.822012   1.000000
  448       -2.821985   1.000000
  449       -2.821851   1.000000
  450       -2.821794   1.000000
  451       -2.821781   1.000000
  452       -2.821756   1.000000
  453       -2.821653   1.000000
  454       -2.821589   1.000000
  455       -2.821541   1.000000
  456       -2.821526   1.000000
  457       -2.821451   1.000000
  458       -2.821370   1.000000
  459       -2.818608   1.000000
  460       -2.818335   1.000000
  461       -2.818081   1.000000
  462       -2.818029   1.000000
  463       -2.817907   1.000000
  464       -2.817421   1.000000
  465       -2.780822   1.000000
  466       -2.780813   1.000000
  467       -2.780538   1.000000
  468       -2.780525   1.000000
  469       -2.730798   1.000000
  470       -2.730774   1.000000
  471       -2.730724   1.000000
  472       -2.730690   1.000000
  473       -2.730455   1.000000
  474       -2.730025   1.000000
  475       -2.727308   1.000000
  476       -2.727133   1.000000
  477       -2.725595   1.000000
  478       -2.725351   1.000000
  479       -2.725168   1.000000
  480       -2.725062   1.000000
  481       -2.725042   1.000000
  482       -2.724947   1.000000
  483       -2.724646   1.000000
  484       -2.724572   1.000000
  485       -2.724519   1.000000
  486       -2.724442   1.000000
  487       -2.724390   1.000000
  488       -2.724307   1.000000
  489       -2.719268   1.000000
  490       -2.719228   1.000000
  491       -2.719199   1.000000
  492       -2.718962   1.000000
  493       -2.718895   1.000000
  494       -2.718873   1.000000
  495       -2.718852   1.000000
  496       -2.718822   1.000000
  497       -2.718774   1.000000
  498       -2.718752   1.000000
  499       -2.718727   1.000000
  500       -2.718653   1.000000
  501       -2.666704   1.000000
  502       -2.666672   1.000000
  503       -2.666648   1.000000
  504       -2.666619   1.000000
  505       -2.666313   1.000000
  506       -2.664182   1.000000
  507       -2.658774   1.000000
  508       -2.658759   1.000000
  509       -2.658709   1.000000
  510       -2.658622   1.000000
  511       -2.658556   1.000000
  512       -2.658314   1.000000
  513       -2.632848   1.000000
  514       -2.632816   1.000000
  515       -2.632782   1.000000
  516       -2.632748   1.000000
  517       -2.622419   1.000000
  518       -2.605050   1.000000
  519       -2.604328   1.000000
  520       -2.604220   1.000000
  521       -2.604093   1.000000
  522       -2.603898   1.000000
  523       -2.602061   1.000000
  524       -2.583429   1.000000
  525       -2.560525   1.000000
  526       -2.560287   1.000000
  527       -2.560110   1.000000
  528       -2.559905   1.000000
  529       -2.559856   1.000000
  530       -2.559815   1.000000
  531       -2.559803   1.000000
  532       -2.559716   1.000000
  533       -2.559693   1.000000
  534       -2.559638   1.000000
  535       -2.559298   1.000000
  536       -2.559233   1.000000
  537       -2.543451   1.000000
  538       -2.542624   1.000000
  539       -2.542567   1.000000
  540       -2.542435   1.000000
  541       -2.541687   1.000000
  542       -2.538194   1.000000
  543       -2.516774   1.000000
  544       -2.516730   1.000000
  545       -2.516484   1.000000
  546       -2.501661   1.000000
  547       -2.501611   1.000000
  548       -2.501575   1.000000
  549       -2.501487   1.000000
  550       -2.501039   1.000000
  551       -2.498002   1.000000
  552       -2.488472   1.000000
  553       -2.488333   1.000000
  554       -2.488264   1.000000
  555       -2.488158   1.000000
  556       -2.488070   1.000000
  557       -2.488042   1.000000
  558       -2.487999   1.000000
  559       -2.487989   1.000000
  560       -2.487951   1.000000
  561       -2.487909   1.000000
  562       -2.487878   1.000000
  563       -2.487825   1.000000
  564       -2.479086   1.000000
  565       -2.478855   1.000000
  566       -2.478754   1.000000
  567       -2.478691   1.000000
  568       -2.478184   1.000000
  569       -2.478127   1.000000
  570       -2.478098   1.000000
  571       -2.477934   1.000000
  572       -2.474200   1.000000
  573       -2.427761   1.000000
  574       -2.427643   1.000000
  575       -2.427589   1.000000
  576       -2.427462   1.000000
  577       -2.427136   1.000000
  578       -2.426242   1.000000
  579       -2.426070   1.000000
  580       -2.425889   1.000000
  581       -2.424430   1.000000
  582       -2.424216   1.000000
  583       -2.412905   1.000000
  584       -2.412832   1.000000
  585       -2.412619   1.000000
  586       -2.412573   1.000000
  587       -2.412525   1.000000
  588       -2.411867   1.000000
  589       -2.394179   1.000000
  590       -2.384509   1.000000
  591       -2.384306   1.000000
  592       -2.384216   1.000000
  593       -2.384204   1.000000
  594       -2.384121   1.000000
  595       -2.383479   1.000000
  596       -2.371016   1.000000
  597       -2.370959   1.000000
  598       -2.370916   1.000000
  599       -2.370895   1.000000
  600       -2.370852   1.000000
  601       -2.370846   1.000000
  602       -2.365786   1.000000
  603       -2.365766   1.000000
  604       -2.365578   1.000000
  605       -2.352106   1.000000
  606       -2.352055   1.000000
  607       -2.351986   1.000000
  608       -2.351936   1.000000
  609       -2.351880   1.000000
  610       -2.351840   1.000000
  611       -2.336465   1.000000
  612       -2.336236   1.000000
  613       -2.311827   1.000000
  614       -2.311728   1.000000
  615       -2.311609   1.000000
  616       -2.308381   1.000000
  617       -2.307939   1.000000
  618       -2.307605   1.000000
  619       -2.307272   1.000000
  620       -2.307145   1.000000
  621       -2.307081   1.000000
  622       -2.306516   1.000000
  623       -2.291641   1.000000
  624       -2.291445   1.000000
  625       -2.277130   1.000000
  626       -2.277111   1.000000
  627       -2.277017   1.000000
  628       -2.276996   1.000000
  629       -2.276931   1.000000
  630       -2.276868   1.000000
  631       -2.270528   1.000000
  632       -2.270340   1.000000
  633       -2.270250   1.000000
  634       -2.253590   1.000000
  635       -2.253547   1.000000
  636       -2.253457   1.000000
  637       -2.253372   1.000000
  638       -2.253293   1.000000
  639       -2.253229   1.000000
  640       -2.242608   1.000000
  641       -2.242341   1.000000
  642       -2.242302   1.000000
  643       -2.229795   1.000000
  644       -2.229561   1.000000
  645       -2.229210   1.000000
  646       -2.229169   1.000000
  647       -2.229140   1.000000
  648       -2.228169   1.000000
  649       -2.225853   1.000000
  650       -2.225626   1.000000
  651       -2.225502   1.000000
  652       -2.225390   1.000000
  653       -2.225237   1.000000
  654       -2.225222   1.000000
  655       -2.225127   1.000000
  656       -2.225122   1.000000
  657       -2.225054   1.000000
  658       -2.224910   1.000000
  659       -2.224873   1.000000
  660       -2.224573   1.000000
  661       -2.216711   1.000000
  662       -2.216526   1.000000
  663       -2.215896   1.000000
  664       -2.215786   1.000000
  665       -2.215725   1.000000
  666       -2.215708   1.000000
  667       -2.210969   1.000000
  668       -2.210654   1.000000
  669       -2.210636   1.000000
  670       -2.210455   1.000000
  671       -2.210195   1.000000
  672       -2.209918   1.000000
  673       -2.164279   1.000000
  674       -2.164219   1.000000
  675       -2.163923   1.000000
  676       -2.163824   1.000000
  677       -2.163768   1.000000
  678       -2.163595   1.000000
  679       -2.155994   1.000000
  680       -2.142579   1.000000
  681       -2.142238   1.000000
  682       -2.142084   1.000000
  683       -2.142061   1.000000
  684       -2.142011   1.000000
  685       -2.141922   1.000000
  686       -2.117286   1.000000
  687       -2.117253   1.000000
  688       -2.116988   1.000000
  689       -2.115888   1.000000
  690       -2.113264   1.000000
  691       -2.112662   1.000000
  692       -2.112651   1.000000
  693       -2.112371   1.000000
  694       -2.112143   1.000000
  695       -2.112061   1.000000
  696       -2.112004   1.000000
  697       -2.111977   1.000000
  698       -2.111875   1.000000
  699       -2.111801   1.000000
  700       -2.111510   1.000000
  701       -2.110903   1.000000
  702       -2.106632   1.000000
  703       -2.106433   1.000000
  704       -2.098297   1.000000
  705       -2.098087   1.000000
  706       -2.098042   1.000000
  707       -2.097998   1.000000
  708       -2.097953   1.000000
  709       -2.097906   1.000000
  710       -2.097868   1.000000
  711       -2.097830   1.000000
  712       -2.097776   1.000000
  713       -2.097744   1.000000
  714       -2.097655   1.000000
  715       -2.097600   1.000000
  716       -2.094630   1.000000
  717       -2.094427   1.000000
  718       -2.072019   1.000000
  719       -2.071977   1.000000
  720       -2.071901   1.000000
  721       -2.071816   1.000000
  722       -2.071808   1.000000
  723       -2.071749   1.000000
  724       -2.048721   1.000000
  725       -2.047843   1.000000
  726       -2.047733   1.000000
  727       -2.047444   1.000000
  728       -2.046769   1.000000
  729       -2.045451   1.000000
  730       -2.027559   1.000000
  731       -2.026048   1.000000
  732       -2.025856   1.000000
  733       -2.025794   1.000000
  734       -2.025765   1.000000
  735       -2.025744   1.000000
  736       -2.025696   1.000000
  737       -2.025615   1.000000
  738       -2.025531   1.000000
  739       -2.025505   1.000000
  740       -2.025211   1.000000
  741       -2.023498   1.000000
  742       -1.982510   1.000000
  743       -1.982410   1.000000
  744       -1.982332   1.000000
  745       -1.982237   1.000000
  746       -1.982215   1.000000
  747       -1.982122   1.000000
  748       -1.975329   1.000000
  749       -1.975193   1.000000
  750       -1.975149   1.000000
  751       -1.974932   1.000000
  752       -1.974721   1.000000
  753       -1.973257   1.000000
  754       -1.928527   1.000000
  755       -1.927222   1.000000
  756       -1.927147   1.000000
  757       -1.926943   1.000000
  758       -1.926910   1.000000
  759       -1.926850   1.000000
  760       -1.926839   1.000000
  761       -1.926793   1.000000
  762       -1.926747   1.000000
  763       -1.926693   1.000000
  764       -1.926576   1.000000
  765       -1.925803   1.000000
  766       -1.923204   1.000000
  767       -1.923113   1.000000
  768       -1.923086   1.000000
  769       -1.923007   1.000000
  770       -1.922860   1.000000
  771       -1.921991   1.000000
  772       -1.916665   1.000000
  773       -1.916547   1.000000
  774       -1.916496   1.000000
  775       -1.916424   1.000000
  776       -1.916290   1.000000
  777       -1.915480   1.000000
  778       -1.884881   1.000000
  779       -1.884803   1.000000
  780       -1.884685   1.000000
  781       -1.880980   1.000000
  782       -1.880869   1.000000
  783       -1.880778   1.000000
  784       -1.880726   1.000000
  785       -1.880688   1.000000
  786       -1.880587   1.000000
  787       -1.862951   1.000000
  788       -1.860842   1.000000
  789       -1.860203   1.000000
  790       -1.860059   1.000000
  791       -1.859176   1.000000
  792       -1.856179   1.000000
  793       -1.856016   1.000000
  794       -1.855877   1.000000
  795       -1.855807   1.000000
  796       -1.855757   1.000000
  797       -1.855645   1.000000
  798       -1.855587   1.000000
  799       -1.835690   1.000000
  800       -1.835429   1.000000
  801       -1.835334   1.000000
  802       -1.835272   1.000000
  803       -1.835184   1.000000
  804       -1.835018   1.000000
  805       -1.828460   1.000000
  806       -1.827046   1.000000
  807       -1.826890   1.000000
  808       -1.826779   1.000000
  809       -1.826677   1.000000
  810       -1.826629   1.000000
  811       -1.826588   1.000000
  812       -1.826545   1.000000
  813       -1.826359   1.000000
  814       -1.826190   1.000000
  815       -1.826102   1.000000
  816       -1.824440   1.000000
  817       -1.789725   1.000000
  818       -1.788132   1.000000
  819       -1.788077   1.000000
  820       -1.787844   1.000000
  821       -1.787625   1.000000
  822       -1.787577   1.000000
  823       -1.787546   1.000000
  824       -1.787517   1.000000
  825       -1.787398   1.000000
  826       -1.787356   1.000000
  827       -1.787137   1.000000
  828       -1.785834   1.000000
  829       -1.754441   1.000000
  830       -1.754244   1.000000
  831       -1.753999   1.000000
  832       -1.753992   1.000000
  833       -1.753912   1.000000
  834       -1.753777   1.000000
  835       -1.753285   1.000000
  836       -1.752983   1.000000
  837       -1.752917   1.000000
  838       -1.749133   1.000000
  839       -1.749095   1.000000
  840       -1.749016   1.000000
  841       -1.748895   1.000000
  842       -1.748857   1.000000
  843       -1.748690   1.000000
  844       -1.738222   1.000000
  845       -1.737363   1.000000
  846       -1.737303   1.000000
  847       -1.737239   1.000000
  848       -1.737024   1.000000
  849       -1.736976   1.000000
  850       -1.728536   1.000000
  851       -1.727831   1.000000
  852       -1.727768   1.000000
  853       -1.727628   1.000000
  854       -1.726491   1.000000
  855       -1.725559   1.000000
  856       -1.724661   1.000000
  857       -1.723937   1.000000
  858       -1.723754   1.000000
  859       -1.723332   1.000000
  860       -1.722028   1.000000
  861       -1.713578   1.000000
  862       -1.704280   1.000000
  863       -1.703957   1.000000
  864       -1.703791   1.000000
  865       -1.671357   1.000000
  866       -1.669520   1.000000
  867       -1.669412   1.000000
  868       -1.669371   1.000000
  869       -1.668791   1.000000
  870       -1.667766   1.000000
  871       -1.639685   1.000000
  872       -1.639276   1.000000
  873       -1.639137   1.000000
  874       -1.639067   1.000000
  875       -1.638911   1.000000
  876       -1.638862   1.000000
  877       -1.638768   1.000000
  878       -1.638745   1.000000
  879       -1.638711   1.000000
  880       -1.638489   1.000000
  881       -1.638410   1.000000
  882       -1.638376   1.000000
  883       -1.625512   1.000000
  884       -1.617319   1.000000
  885       -1.616743   1.000000
  886       -1.616452   1.000000
  887       -1.616180   1.000000
  888       -1.613025   1.000000
  889       -1.587095   1.000000
  890       -1.566787   1.000000
  891       -1.566694   1.000000
  892       -1.566600   1.000000
  893       -1.566464   1.000000
  894       -1.566407   1.000000
  895       -1.566399   1.000000
  896       -1.513576   1.000000
  897       -1.512327   1.000000
  898       -1.511870   1.000000
  899       -1.511752   1.000000
  900       -1.511006   1.000000
  901       -1.510740   1.000000