       N       E                     dE             d eps       ncg     rms          rms(c)
DAV:   1     0.223286762829E+05    0.22329E+05   -0.98535E+05 12200   0.134E+03
DAV:   2     0.950646477595E+02   -0.22234E+05   -0.21246E+05 12152   0.469E+02
DAV:   3    -0.133414448223E+04   -0.14292E+04   -0.11980E+04 13496   0.131E+02
DAV:   4    -0.155957715097E+04   -0.22543E+03   -0.18825E+03 21216   0.489E+01
DAV:   5    -0.157119910208E+04   -0.11622E+02   -0.11028E+02 18936   0.117E+01    0.142E+02
DAV:   6    -0.194046280717E+04   -0.36926E+03   -0.27991E+03 15816   0.167E+02    0.289E+02
DAV:   7    -0.174936509227E+04    0.19110E+03   -0.10285E+03 13264   0.143E+02    0.238E+02
DAV:   8    -0.218712577262E+04   -0.43776E+03   -0.58602E+02 16744   0.133E+02    0.319E+02
DAV:   9    -0.178742007774E+04    0.39971E+03   -0.24071E+02 14440   0.936E+01    0.257E+02
DAV:  10    -0.167635034535E+04    0.11107E+03   -0.26183E+02 15512   0.738E+01    0.218E+02
DAV:  11    -0.151566850303E+04    0.16068E+03   -0.27094E+02 14016   0.702E+01    0.171E+02
DAV:  12    -0.156463612188E+04   -0.48968E+02   -0.49391E+02 16624   0.105E+02    0.191E+02
DAV:  13    -0.151665862068E+04    0.47978E+02   -0.22947E+02 14328   0.585E+01    0.179E+02
DAV:  14    -0.163513325362E+04   -0.11847E+03   -0.14950E+02 13224   0.794E+01    0.212E+02
DAV:  15    -0.150114628464E+04    0.13399E+03   -0.81869E+01 13536   0.498E+01    0.170E+02
DAV:  16    -0.149088651521E+04    0.10260E+02   -0.79655E+01 12912   0.548E+01    0.172E+02
DAV:  17    -0.148928764609E+04    0.15989E+01   -0.56985E+01 13120   0.414E+01    0.175E+02
DAV:  18    -0.142050297345E+04    0.68785E+02   -0.58756E+01 12800   0.484E+01    0.151E+02
DAV:  19    -0.140057803269E+04    0.19925E+02   -0.42348E+01 13504   0.335E+01    0.141E+02
DAV:  20    -0.137725451354E+04    0.23324E+02   -0.34835E+01 12768   0.336E+01    0.116E+02
DAV:  21    -0.134977885070E+04    0.27476E+02   -0.19932E+01 12912   0.241E+01    0.786E+01
DAV:  22    -0.134081633194E+04    0.89625E+01   -0.12048E+01 12912   0.158E+01    0.623E+01
DAV:  23    -0.133869519629E+04    0.21211E+01   -0.73645E+00 13784   0.114E+01    0.559E+01
DAV:  24    -0.133983516549E+04   -0.11400E+01   -0.55752E+00 13336   0.118E+01    0.583E+01
DAV:  25    -0.133730583710E+04    0.25293E+01   -0.42520E+00 13248   0.113E+01    0.567E+01
DAV:  26    -0.133528400637E+04    0.20218E+01   -0.29570E+00 13376   0.969E+00    0.495E+01
DAV:  27    -0.133392079282E+04    0.13632E+01   -0.25835E+00 13352   0.863E+00    0.470E+01
DAV:  28    -0.133248928068E+04    0.14315E+01   -0.23247E+00 13304   0.924E+00    0.487E+01
DAV:  29    -0.133144357806E+04    0.10457E+01   -0.20236E+00 13496   0.774E+00    0.447E+01
DAV:  30    -0.132905465527E+04    0.23889E+01   -0.17253E+00 13360   0.730E+00    0.348E+01
DAV:  31    -0.132785450049E+04    0.12002E+01   -0.11812E+00 13504   0.567E+00    0.313E+01
DAV:  32    -0.132802759888E+04   -0.17310E+00   -0.11346E+00 13528   0.603E+00    0.317E+01
DAV:  33    -0.132746177575E+04    0.56582E+00   -0.81129E-01 13544   0.462E+00    0.288E+01
DAV:  34    -0.132669283577E+04    0.76894E+00   -0.65882E-01 13472   0.385E+00    0.262E+01
DAV:  35    -0.132630290594E+04    0.38993E+00   -0.60752E-01 13592   0.401E+00    0.243E+01
DAV:  36    -0.132613827879E+04    0.16463E+00   -0.54128E-01 13472   0.390E+00    0.237E+01
DAV:  37    -0.132671582132E+04   -0.57754E+00   -0.81667E-01 13560   0.538E+00    0.287E+01
DAV:  38    -0.132709386195E+04   -0.37804E+00   -0.90523E-01 13608   0.582E+00    0.340E+01
DAV:  39    -0.132712747154E+04   -0.33610E-01   -0.99585E-01 13544   0.589E+00    0.351E+01
DAV:  40    -0.132651179747E+04    0.61567E+00   -0.74008E-01 13536   0.446E+00    0.304E+01
DAV:  41    -0.132608681850E+04    0.42498E+00   -0.66642E-01 13456   0.419E+00    0.260E+01
DAV:  42    -0.132620890847E+04   -0.12209E+00   -0.94343E-01 13504   0.537E+00    0.278E+01
DAV:  43    -0.132542742115E+04    0.78149E+00   -0.57124E-01 13640   0.390E+00    0.202E+01
DAV:  44    -0.132512479327E+04    0.30263E+00   -0.34500E-01 13480   0.312E+00    0.179E+01
DAV:  45    -0.132504755761E+04    0.77236E-01   -0.27980E-01 13576   0.281E+00    0.181E+01
DAV:  46    -0.132482504557E+04    0.22251E+00   -0.27649E-01 13432   0.262E+00    0.144E+01
DAV:  47    -0.132467812434E+04    0.14692E+00   -0.11075E-01 13480   0.159E+00    0.127E+01
DAV:  48    -0.132472511735E+04   -0.46993E-01   -0.12232E-01 13696   0.174E+00    0.127E+01
DAV:  49    -0.132467879994E+04    0.46317E-01   -0.15443E-01 13584   0.193E+00    0.107E+01
DAV:  50    -0.132468042081E+04   -0.16209E-02   -0.14004E-01 13584   0.186E+00    0.964E+00
DAV:  51    -0.132500688277E+04   -0.32646E+00   -0.46146E-01 22280   0.290E+00    0.161E+01
DAV:  52    -0.132485061329E+04    0.15627E+00   -0.20535E-01 16640   0.232E+00    0.147E+01
DAV:  53    -0.132475923045E+04    0.91383E-01   -0.14318E-01 15768   0.209E+00    0.134E+01
DAV:  54    -0.132469363656E+04    0.65594E-01   -0.11821E-01 15408   0.184E+00    0.122E+01
DAV:  55    -0.132465656098E+04    0.37076E-01   -0.15106E-01 14776   0.195E+00    0.110E+01
DAV:  56    -0.132471137948E+04   -0.54818E-01   -0.16624E-01 15032   0.239E+00    0.115E+01
DAV:  57    -0.132454147362E+04    0.16991E+00   -0.13552E-01 14888   0.205E+00    0.677E+00
DAV:  58    -0.132453154192E+04    0.99317E-02   -0.78171E-02 14640   0.151E+00    0.530E+00
DAV:  59    -0.132453541058E+04   -0.38687E-02   -0.64473E-02 14624   0.133E+00    0.553E+00
DAV:  60    -0.132457203182E+04   -0.36621E-01   -0.76418E-02 14464   0.147E+00    0.487E+00
DAV:  61    -0.132461183175E+04   -0.39800E-01   -0.94470E-02 15336   0.178E+00    0.635E+00
DAV:  62    -0.132454987239E+04    0.61959E-01   -0.70350E-02 14704   0.160E+00    0.393E+00
DAV:  63    -0.132454059795E+04    0.92744E-02   -0.33200E-02 14760   0.105E+00    0.296E+00
DAV:  64    -0.132453122453E+04    0.93734E-02   -0.21724E-02 14424   0.830E-01    0.259E+00
DAV:  65    -0.132452077882E+04    0.10446E-01   -0.11814E-02 14328   0.648E-01    0.223E+00
DAV:  66    -0.132458641298E+04   -0.65634E-01   -0.42546E-02 18744   0.114E+00    0.546E+00
DAV:  67    -0.132453021096E+04    0.56202E-01   -0.38701E-02 14952   0.108E+00    0.200E+00
DAV:  68    -0.132452328971E+04    0.69213E-02   -0.98846E-03 14808   0.506E-01    0.163E+00
DAV:  69    -0.132452505002E+04   -0.17603E-02   -0.65786E-03 14072   0.421E-01    0.132E+00
DAV:  70    -0.132452457256E+04    0.47746E-03   -0.41236E-03 14000   0.351E-01    0.112E+00
DAV:  71    -0.132453909723E+04   -0.14525E-01   -0.68495E-03 14496   0.515E-01    0.272E+00
DAV:  72    -0.132452607194E+04    0.13025E-01   -0.75159E-03 13960   0.488E-01    0.129E+00
DAV:  73    -0.132452540375E+04    0.66818E-03   -0.20596E-03 14160   0.260E-01    0.100E+00
DAV:  74    -0.132452459864E+04    0.80511E-03   -0.14484E-03 13832   0.214E-01    0.606E-01
DAV:  75    -0.132452454500E+04    0.53643E-04   -0.85460E-04 13784   0.161E-01    0.439E-01
DAV:  76    -0.132453298792E+04   -0.84429E-02   -0.44562E-03 17352   0.357E-01    0.187E+00
DAV:  77    -0.132452121717E+04    0.11771E-01   -0.44129E-03 15120   0.343E-01    0.588E-01
DAV:  78    -0.132452570947E+04   -0.44923E-02   -0.79306E-04 14040   0.141E-01    0.381E-01
DAV:  79    -0.132452621633E+04   -0.50686E-03   -0.40413E-04 14224   0.101E-01    0.426E-01
DAV:  80    -0.132452668572E+04   -0.46940E-03   -0.34150E-04 14240   0.973E-02    0.381E-01
DAV:  81    -0.132452808402E+04   -0.13983E-02   -0.67993E-04 14672   0.143E-01    0.895E-01
DAV:  82    -0.132452661101E+04    0.14730E-02   -0.62996E-04 14088   0.139E-01    0.226E-01
DAV:  83    -0.132452747165E+04   -0.86063E-03   -0.16144E-04 15072   0.585E-02    0.212E-01
DAV:  84    -0.132452801946E+04   -0.54781E-03   -0.13180E-04 14544   0.590E-02    0.250E-01
DAV:  85    -0.132452836683E+04   -0.34737E-03   -0.10692E-04 14320   0.556E-02    0.215E-01
DAV:  86    -0.132452984859E+04   -0.14818E-02   -0.58688E-04 15408   0.144E-01    0.920E-01
DAV:  87    -0.132452871160E+04    0.11370E-02   -0.59793E-04 14448   0.141E-01    0.233E-01
DAV:  88    -0.132452904289E+04   -0.33129E-03   -0.84276E-05 14288   0.527E-02    0.165E-01
DAV:  89    -0.132452931649E+04   -0.27360E-03   -0.62286E-05 14072   0.389E-02    0.176E-01
DAV:  90    -0.132452989866E+04   -0.58217E-03   -0.85715E-05 14640   0.431E-02    0.170E-01
DAV:  91    -0.132453022170E+04   -0.32304E-03   -0.12823E-04 14128   0.649E-02    0.380E-01
DAV:  92    -0.132453014426E+04    0.77436E-04   -0.12614E-04 13888   0.626E-02    0.130E-01
DAV:  93    -0.132453035512E+04   -0.21086E-03   -0.36391E-05 12192   0.308E-02    0.995E-02
DAV:  94    -0.132453069329E+04   -0.33817E-03   -0.37883E-05 12080   0.279E-02    0.990E-02
DAV:  95    -0.132453085860E+04   -0.16531E-03   -0.25737E-05 11672   0.266E-02    0.742E-02
DAV:  96    -0.132453111070E+04   -0.25210E-03   -0.48305E-05 12464   0.375E-02    0.176E-01
DAV:  97    -0.132453124880E+04   -0.13810E-03   -0.51107E-05 12656   0.376E-02    0.947E-02
DAV:  98    -0.132453140019E+04   -0.15139E-03   -0.25722E-05 11400   0.205E-02    0.670E-02
DAV:  99    -0.132453153369E+04   -0.13349E-03   -0.15605E-05  9808   0.166E-02    0.587E-02
DAV: 100    -0.132453165424E+04   -0.12055E-03   -0.16109E-05 10456   0.159E-02    0.586E-02
DAV: 101    -0.132453172811E+04   -0.73876E-04   -0.13478E-05  8936   0.175E-02    0.801E-02
DAV: 102    -0.132453178923E+04   -0.61117E-04   -0.13623E-05  9040   0.164E-02    0.671E-02
DAV: 103    -0.132453184115E+04   -0.51921E-04   -0.11941E-05  9184   0.133E-02    0.555E-02
DAV: 104    -0.132453187072E+04   -0.29571E-04   -0.73412E-06  7872   0.122E-02    0.379E-02
DAV: 105    -0.132453188802E+04   -0.17297E-04   -0.48355E-06  7264   0.102E-02    0.329E-02
DAV: 106    -0.132453191089E+04   -0.22872E-04   -0.49226E-06  7032   0.127E-02    0.494E-02
DAV: 107    -0.132453191308E+04   -0.21840E-05   -0.45899E-06  6960   0.121E-02
   1 F= -.14218288E+04 E0= -.14210663E+04  d E =-.152513E+01
