<?xml version="1.0" encoding="ISO-8859-1"?>
<modeling>
 <generator>
  <i name="program" type="string">vasp </i>
  <i name="version" type="string">6.2.1  </i>
  <i name="subversion" type="string">16May21 (build Jun 16 2021 03:23:30) complex                          parallel </i>
  <i name="platform" type="string">LinuxPGI </i>
  <i name="date" type="string">2022 04 26 </i>
  <i name="time" type="string">01:21:26 </i>
 </generator>
 <incar>
  <i type="string" name="SYSTEM">NiAl</i>
  <i type="int" name="ISTART">     0</i>
  <i type="int" name="NELM">   250</i>
  <i type="int" name="NELMIN">     6</i>
  <i name="EDIFF">      0.00000500</i>
  <i type="int" name="ISIF">     0</i>
  <i name="ENCUT">    360.00000000</i>
  <i type="string" name="LREAL">Auto</i>
  <i type="logical" name="LPLANE"> T  </i>
  <i type="int" name="ISMEAR">     0</i>
  <i name="SIGMA">      0.05000000</i>
  <i type="logical" name="LWAVE"> F  </i>
  <i type="logical" name="LCHARG"> F  </i>
  <i type="int" name="IVDW">    12</i>
 </incar>
 <primitive_cell>
  <structure name="primitive_cell" >
   <crystal>
    <varray name="basis" >
     <v>       0.00000000     -15.14622176       0.00000000 </v>
     <v>       0.00000000      -7.57311088     -13.11701281 </v>
     <v>      29.00000000       0.00000000       0.00000000 </v>
    </varray>
    <i name="volume">   5761.52236213 </i>
    <varray name="rec_basis" >
     <v>       0.00000000      -0.06602307       0.03811843 </v>
     <v>       0.00000000       0.00000000      -0.07623687 </v>
     <v>       0.03448276       0.00000000       0.00000000 </v>
    </varray>
   </crystal>
   <varray name="positions" >
    <v>       0.44444450       0.44444418       0.10434517 </v>
    <v>       0.44444439       0.77777770       0.10434517 </v>
    <v>       0.44444423       0.11111143       0.10434517 </v>
    <v>       0.77777779       0.44444418       0.10434517 </v>
    <v>       0.77777768       0.77777770       0.10434517 </v>
    <v>       0.77777752       0.11111143       0.10434517 </v>
    <v>       0.11111120       0.44444418       0.10434517 </v>
    <v>       0.11111109       0.77777770       0.10434517 </v>
    <v>       0.11111093       0.11111143       0.10434517 </v>
    <v>       0.55555543       0.55555561       0.17318552 </v>
    <v>       0.55555532       0.88888912       0.17318552 </v>
    <v>       0.55555554       0.22222209       0.17318552 </v>
    <v>       0.88888873       0.55555561       0.17318552 </v>
    <v>       0.88888862       0.88888912       0.17318552 </v>
    <v>       0.88888884       0.22222209       0.17318552 </v>
    <v>       0.22222214       0.55555561       0.17318552 </v>
    <v>       0.22222203       0.88888912       0.17318552 </v>
    <v>       0.22222225       0.22222209       0.17318552 </v>
    <v>       0.66666637       0.66666703       0.24249897 </v>
    <v>       0.66666659       0.00000000       0.24249897 </v>
    <v>       0.66666648       0.33333352       0.24249897 </v>
    <v>       0.99999978       0.66666703       0.24249897 </v>
    <v>       0.00000000       0.00000000       0.24249897 </v>
    <v>       0.99999989       0.33333352       0.24249897 </v>
    <v>       0.33333307       0.66666703       0.24249897 </v>
    <v>       0.33333329       0.00000000       0.24249897 </v>
    <v>       0.33333318       0.33333352       0.24249897 </v>
    <v>       0.77777768       0.77777770       0.31173069 </v>
    <v>       0.77777752       0.11111143       0.31173069 </v>
    <v>       0.77777779       0.44444418       0.31173069 </v>
    <v>       0.11111109       0.77777770       0.31173069 </v>
    <v>       0.11111093       0.11111143       0.31173069 </v>
    <v>       0.11111120       0.44444418       0.31173069 </v>
    <v>       0.44444439       0.77777770       0.31173069 </v>
    <v>       0.44444423       0.11111143       0.31173069 </v>
    <v>       0.44444450       0.44444418       0.31173069 </v>
    <v>       0.88888862       0.88888912       0.38096241 </v>
    <v>       0.88888884       0.22222209       0.38096241 </v>
    <v>       0.88888873       0.55555561       0.38096241 </v>
    <v>       0.22222203       0.88888912       0.38096241 </v>
    <v>       0.22222225       0.22222209       0.38096241 </v>
    <v>       0.22222214       0.55555561       0.38096241 </v>
    <v>       0.55555532       0.88888912       0.38096241 </v>
    <v>       0.55555554       0.22222209       0.38096241 </v>
    <v>       0.55555543       0.55555561       0.38096241 </v>
    <v>       0.00000000       0.00000000       0.45027586 </v>
    <v>       0.99999989       0.33333352       0.45027586 </v>
    <v>       0.99999978       0.66666703       0.45027586 </v>
    <v>       0.33333329       0.00000000       0.45027586 </v>
    <v>       0.33333318       0.33333352       0.45027586 </v>
    <v>       0.33333307       0.66666703       0.45027586 </v>
    <v>       0.66666659       0.00000000       0.45027586 </v>
    <v>       0.66666648       0.33333352       0.45027586 </v>
    <v>       0.66666637       0.66666703       0.45027586 </v>
    <v>       0.11111093       0.11111143       0.51911621 </v>
    <v>       0.11111120       0.44444418       0.51911621 </v>
    <v>       0.11111109       0.77777770       0.51911621 </v>
    <v>       0.44444423       0.11111143       0.51911621 </v>
    <v>       0.44444450       0.44444418       0.51911621 </v>
    <v>       0.44444439       0.77777770       0.51911621 </v>
    <v>       0.77777752       0.11111143       0.51911621 </v>
    <v>       0.77777779       0.44444418       0.51911621 </v>
    <v>       0.77777768       0.77777770       0.51911621 </v>
    <v>       0.27777824       0.27777742       0.10434517 </v>
    <v>       0.27777813       0.61111094       0.10434517 </v>
    <v>       0.27777802       0.94444445       0.10434517 </v>
    <v>       0.61111153       0.27777742       0.10434517 </v>
    <v>       0.61111142       0.61111094       0.10434517 </v>
    <v>       0.61111131       0.94444445       0.10434517 </v>
    <v>       0.94444483       0.27777742       0.10434517 </v>
    <v>       0.94444472       0.61111094       0.10434517 </v>
    <v>       0.94444461       0.94444445       0.10434517 </v>
    <v>       0.38888917       0.38888885       0.17318552 </v>
    <v>       0.38888906       0.72222236       0.17318552 </v>
    <v>       0.38888928       0.05555533       0.17318552 </v>
    <v>       0.72222247       0.38888885       0.17318552 </v>
    <v>       0.72222236       0.72222236       0.17318552 </v>
    <v>       0.72222258       0.05555533       0.17318552 </v>
    <v>       0.05555588       0.38888885       0.17318552 </v>
    <v>       0.05555577       0.72222236       0.17318552 </v>
    <v>       0.05555599       0.05555533       0.17318552 </v>
    <v>       0.50000011       0.50000027       0.24249897 </v>
    <v>       0.50000038       0.83333303       0.24249897 </v>
    <v>       0.50000022       0.16666676       0.24249897 </v>
    <v>       0.83333340       0.50000027       0.24249897 </v>
    <v>       0.83333367       0.83333303       0.24249897 </v>
    <v>       0.83333351       0.16666676       0.24249897 </v>
    <v>       0.16666681       0.50000027       0.24249897 </v>
    <v>       0.16666708       0.83333303       0.24249897 </v>
    <v>       0.16666692       0.16666676       0.24249897 </v>
    <v>       0.61111142       0.61111094       0.31173069 </v>
    <v>       0.61111131       0.94444445       0.31173069 </v>
    <v>       0.61111153       0.27777742       0.31173069 </v>
    <v>       0.94444472       0.61111094       0.31173069 </v>
    <v>       0.94444461       0.94444445       0.31173069 </v>
    <v>       0.94444483       0.27777742       0.31173069 </v>
    <v>       0.27777813       0.61111094       0.31173069 </v>
    <v>       0.27777802       0.94444445       0.31173069 </v>
    <v>       0.27777824       0.27777742       0.31173069 </v>
    <v>       0.72222236       0.72222236       0.38096241 </v>
    <v>       0.72222258       0.05555533       0.38096241 </v>
    <v>       0.72222247       0.38888885       0.38096241 </v>
    <v>       0.05555577       0.72222236       0.38096241 </v>
    <v>       0.05555599       0.05555533       0.38096241 </v>
    <v>       0.05555588       0.38888885       0.38096241 </v>
    <v>       0.38888906       0.72222236       0.38096241 </v>
    <v>       0.38888928       0.05555533       0.38096241 </v>
    <v>       0.38888917       0.38888885       0.38096241 </v>
    <v>       0.83333367       0.83333303       0.45027586 </v>
    <v>       0.83333351       0.16666676       0.45027586 </v>
    <v>       0.83333340       0.50000027       0.45027586 </v>
    <v>       0.16666708       0.83333303       0.45027586 </v>
    <v>       0.16666692       0.16666676       0.45027586 </v>
    <v>       0.16666681       0.50000027       0.45027586 </v>
    <v>       0.50000038       0.83333303       0.45027586 </v>
    <v>       0.50000022       0.16666676       0.45027586 </v>
    <v>       0.50000011       0.50000027       0.45027586 </v>
    <v>       0.94444461       0.94444445       0.51911621 </v>
    <v>       0.94444483       0.27777742       0.51911621 </v>
    <v>       0.94444472       0.61111094       0.51911621 </v>
    <v>       0.27777802       0.94444445       0.51911621 </v>
    <v>       0.27777824       0.27777742       0.51911621 </v>
    <v>       0.27777813       0.61111094       0.51911621 </v>
    <v>       0.61111131       0.94444445       0.51911621 </v>
    <v>       0.61111153       0.27777742       0.51911621 </v>
    <v>       0.61111142       0.61111094       0.51911621 </v>
    <v>       0.27777785       0.44444418       0.10434517 </v>
    <v>       0.27777774       0.77777770       0.10434517 </v>
    <v>       0.27777758       0.11111143       0.10434517 </v>
    <v>       0.61111115       0.44444418       0.10434517 </v>
    <v>       0.61111104       0.77777770       0.10434517 </v>
    <v>       0.61111088       0.11111143       0.10434517 </v>
    <v>       0.94444444       0.44444418       0.10434517 </v>
    <v>       0.94444433       0.77777770       0.10434517 </v>
    <v>       0.94444417       0.11111143       0.10434517 </v>
    <v>       0.38888879       0.55555561       0.17318552 </v>
    <v>       0.38888868       0.88888912       0.17318552 </v>
    <v>       0.38888890       0.22222209       0.17318552 </v>
    <v>       0.72222208       0.55555561       0.17318552 </v>
    <v>       0.72222197       0.88888912       0.17318552 </v>
    <v>       0.72222219       0.22222209       0.17318552 </v>
    <v>       0.05555549       0.55555561       0.17318552 </v>
    <v>       0.05555538       0.88888912       0.17318552 </v>
    <v>       0.05555560       0.22222209       0.17318552 </v>
    <v>       0.49999972       0.66666703       0.24249897 </v>
    <v>       0.49999994       0.00000000       0.24249897 </v>
    <v>       0.49999983       0.33333352       0.24249897 </v>
    <v>       0.83333302       0.66666703       0.24249897 </v>
    <v>       0.83333324       0.00000000       0.24249897 </v>
    <v>       0.83333313       0.33333352       0.24249897 </v>
    <v>       0.16666643       0.66666703       0.24249897 </v>
    <v>       0.16666665       0.00000000       0.24249897 </v>
    <v>       0.16666654       0.33333352       0.24249897 </v>
    <v>       0.61111104       0.77777770       0.31173069 </v>
    <v>       0.61111088       0.11111143       0.31173069 </v>
    <v>       0.61111115       0.44444418       0.31173069 </v>
    <v>       0.94444433       0.77777770       0.31173069 </v>
    <v>       0.94444417       0.11111143       0.31173069 </v>
    <v>       0.94444444       0.44444418       0.31173069 </v>
    <v>       0.27777774       0.77777770       0.31173069 </v>
    <v>       0.27777758       0.11111143       0.31173069 </v>
    <v>       0.27777785       0.44444418       0.31173069 </v>
    <v>       0.72222197       0.88888912       0.38096241 </v>
    <v>       0.72222219       0.22222209       0.38096241 </v>
    <v>       0.72222208       0.55555561       0.38096241 </v>
    <v>       0.05555538       0.88888912       0.38096241 </v>
    <v>       0.05555560       0.22222209       0.38096241 </v>
    <v>       0.05555549       0.55555561       0.38096241 </v>
    <v>       0.38888868       0.88888912       0.38096241 </v>
    <v>       0.38888890       0.22222209       0.38096241 </v>
    <v>       0.38888879       0.55555561       0.38096241 </v>
    <v>       0.83333324       0.00000000       0.45027586 </v>
    <v>       0.83333313       0.33333352       0.45027586 </v>
    <v>       0.83333302       0.66666703       0.45027586 </v>
    <v>       0.16666665       0.00000000       0.45027586 </v>
    <v>       0.16666654       0.33333352       0.45027586 </v>
    <v>       0.16666643       0.66666703       0.45027586 </v>
    <v>       0.49999994       0.00000000       0.45027586 </v>
    <v>       0.49999983       0.33333352       0.45027586 </v>
    <v>       0.49999972       0.66666703       0.45027586 </v>
    <v>       0.94444417       0.11111143       0.51911621 </v>
    <v>       0.94444444       0.44444418       0.51911621 </v>
    <v>       0.94444433       0.77777770       0.51911621 </v>
    <v>       0.27777758       0.11111143       0.51911621 </v>
    <v>       0.27777785       0.44444418       0.51911621 </v>
    <v>       0.27777774       0.77777770       0.51911621 </v>
    <v>       0.61111088       0.11111143       0.51911621 </v>
    <v>       0.61111115       0.44444418       0.51911621 </v>
    <v>       0.61111104       0.77777770       0.51911621 </v>
    <v>       0.44444488       0.27777742       0.10434517 </v>
    <v>       0.44444477       0.61111094       0.10434517 </v>
    <v>       0.44444466       0.94444445       0.10434517 </v>
    <v>       0.77777818       0.27777742       0.10434517 </v>
    <v>       0.77777807       0.61111094       0.10434517 </v>
    <v>       0.77777796       0.94444445       0.10434517 </v>
    <v>       0.11111159       0.27777742       0.10434517 </v>
    <v>       0.11111148       0.61111094       0.10434517 </v>
    <v>       0.11111137       0.94444445       0.10434517 </v>
    <v>       0.55555582       0.38888885       0.17318552 </v>
    <v>       0.55555571       0.72222236       0.17318552 </v>
    <v>       0.55555593       0.05555533       0.17318552 </v>
    <v>       0.88888911       0.38888885       0.17318552 </v>
    <v>       0.88888900       0.72222236       0.17318552 </v>
    <v>       0.88888922       0.05555533       0.17318552 </v>
    <v>       0.22222252       0.38888885       0.17318552 </v>
    <v>       0.22222241       0.72222236       0.17318552 </v>
    <v>       0.22222264       0.05555533       0.17318552 </v>
    <v>       0.66666675       0.50000027       0.24249897 </v>
    <v>       0.66666702       0.83333303       0.24249897 </v>
    <v>       0.66666686       0.16666676       0.24249897 </v>
    <v>       0.00000016       0.50000027       0.24249897 </v>
    <v>       0.00000043       0.83333303       0.24249897 </v>
    <v>       0.00000027       0.16666676       0.24249897 </v>
    <v>       0.33333346       0.50000027       0.24249897 </v>
    <v>       0.33333373       0.83333303       0.24249897 </v>
    <v>       0.33333357       0.16666676       0.24249897 </v>
    <v>       0.77777807       0.61111094       0.31173069 </v>
    <v>       0.77777796       0.94444445       0.31173069 </v>
    <v>       0.77777818       0.27777742       0.31173069 </v>
    <v>       0.11111148       0.61111094       0.31173069 </v>
    <v>       0.11111137       0.94444445       0.31173069 </v>
    <v>       0.11111159       0.27777742       0.31173069 </v>
    <v>       0.44444477       0.61111094       0.31173069 </v>
    <v>       0.44444466       0.94444445       0.31173069 </v>
    <v>       0.44444488       0.27777742       0.31173069 </v>
    <v>       0.88888900       0.72222236       0.38096241 </v>
    <v>       0.88888922       0.05555533       0.38096241 </v>
    <v>       0.88888911       0.38888885       0.38096241 </v>
    <v>       0.22222241       0.72222236       0.38096241 </v>
    <v>       0.22222264       0.05555533       0.38096241 </v>
    <v>       0.22222252       0.38888885       0.38096241 </v>
    <v>       0.55555571       0.72222236       0.38096241 </v>
    <v>       0.55555593       0.05555533       0.38096241 </v>
    <v>       0.55555582       0.38888885       0.38096241 </v>
    <v>       0.00000043       0.83333303       0.45027586 </v>
    <v>       0.00000027       0.16666676       0.45027586 </v>
    <v>       0.00000016       0.50000027       0.45027586 </v>
    <v>       0.33333373       0.83333303       0.45027586 </v>
    <v>       0.33333357       0.16666676       0.45027586 </v>
    <v>       0.33333346       0.50000027       0.45027586 </v>
    <v>       0.66666702       0.83333303       0.45027586 </v>
    <v>       0.66666686       0.16666676       0.45027586 </v>
    <v>       0.66666675       0.50000027       0.45027586 </v>
    <v>       0.11111137       0.94444445       0.51911621 </v>
    <v>       0.11111159       0.27777742       0.51911621 </v>
    <v>       0.11111148       0.61111094       0.51911621 </v>
    <v>       0.44444466       0.94444445       0.51911621 </v>
    <v>       0.44444488       0.27777742       0.51911621 </v>
    <v>       0.44444477       0.61111094       0.51911621 </v>
    <v>       0.77777796       0.94444445       0.51911621 </v>
    <v>       0.77777818       0.27777742       0.51911621 </v>
    <v>       0.77777807       0.61111094       0.51911621 </v>
    <v>       0.55561801       0.38880804       0.62241379 </v>
    <v>       0.49996510       0.50011387       0.62241379 </v>
   </varray>
  </structure>
  <varray name="primitive_index" >
   <v type="int" >        1 </v>
   <v type="int" >        2 </v>
   <v type="int" >        3 </v>
   <v type="int" >        4 </v>
   <v type="int" >        5 </v>
   <v type="int" >        6 </v>
   <v type="int" >        7 </v>
   <v type="int" >        8 </v>
   <v type="int" >        9 </v>
   <v type="int" >       10 </v>
   <v type="int" >       11 </v>
   <v type="int" >       12 </v>
   <v type="int" >       13 </v>
   <v type="int" >       14 </v>
   <v type="int" >       15 </v>
   <v type="int" >       16 </v>
   <v type="int" >       17 </v>
   <v type="int" >       18 </v>
   <v type="int" >       19 </v>
   <v type="int" >       20 </v>
   <v type="int" >       21 </v>
   <v type="int" >       22 </v>
   <v type="int" >       23 </v>
   <v type="int" >       24 </v>
   <v type="int" >       25 </v>
   <v type="int" >       26 </v>
   <v type="int" >       27 </v>
   <v type="int" >       28 </v>
   <v type="int" >       29 </v>
   <v type="int" >       30 </v>
   <v type="int" >       31 </v>
   <v type="int" >       32 </v>
   <v type="int" >       33 </v>
   <v type="int" >       34 </v>
   <v type="int" >       35 </v>
   <v type="int" >       36 </v>
   <v type="int" >       37 </v>
   <v type="int" >       38 </v>
   <v type="int" >       39 </v>
   <v type="int" >       40 </v>
   <v type="int" >       41 </v>
   <v type="int" >       42 </v>
   <v type="int" >       43 </v>
   <v type="int" >       44 </v>
   <v type="int" >       45 </v>
   <v type="int" >       46 </v>
   <v type="int" >       47 </v>
   <v type="int" >       48 </v>
   <v type="int" >       49 </v>
   <v type="int" >       50 </v>
   <v type="int" >       51 </v>
   <v type="int" >       52 </v>
   <v type="int" >       53 </v>
   <v type="int" >       54 </v>
   <v type="int" >       55 </v>
   <v type="int" >       56 </v>
   <v type="int" >       57 </v>
   <v type="int" >       58 </v>
   <v type="int" >       59 </v>
   <v type="int" >       60 </v>
   <v type="int" >       61 </v>
   <v type="int" >       62 </v>
   <v type="int" >       63 </v>
   <v type="int" >       64 </v>
   <v type="int" >       65 </v>
   <v type="int" >       66 </v>
   <v type="int" >       67 </v>
   <v type="int" >       68 </v>
   <v type="int" >       69 </v>
   <v type="int" >       70 </v>
   <v type="int" >       71 </v>
   <v type="int" >       72 </v>
   <v type="int" >       73 </v>
   <v type="int" >       74 </v>
   <v type="int" >       75 </v>
   <v type="int" >       76 </v>
   <v type="int" >       77 </v>
   <v type="int" >       78 </v>
   <v type="int" >       79 </v>
   <v type="int" >       80 </v>
   <v type="int" >       81 </v>
   <v type="int" >       82 </v>
   <v type="int" >       83 </v>
   <v type="int" >       84 </v>
   <v type="int" >       85 </v>
   <v type="int" >       86 </v>
   <v type="int" >       87 </v>
   <v type="int" >       88 </v>
   <v type="int" >       89 </v>
   <v type="int" >       90 </v>
   <v type="int" >       91 </v>
   <v type="int" >       92 </v>
   <v type="int" >       93 </v>
   <v type="int" >       94 </v>
   <v type="int" >       95 </v>
   <v type="int" >       96 </v>
   <v type="int" >       97 </v>
   <v type="int" >       98 </v>
   <v type="int" >       99 </v>
   <v type="int" >      100 </v>
   <v type="int" >      101 </v>
   <v type="int" >      102 </v>
   <v type="int" >      103 </v>
   <v type="int" >      104 </v>
   <v type="int" >      105 </v>
   <v type="int" >      106 </v>
   <v type="int" >      107 </v>
   <v type="int" >      108 </v>
   <v type="int" >      109 </v>
   <v type="int" >      110 </v>
   <v type="int" >      111 </v>
   <v type="int" >      112 </v>
   <v type="int" >      113 </v>
   <v type="int" >      114 </v>
   <v type="int" >      115 </v>
   <v type="int" >      116 </v>
   <v type="int" >      117 </v>
   <v type="int" >      118 </v>
   <v type="int" >      119 </v>
   <v type="int" >      120 </v>
   <v type="int" >      121 </v>
   <v type="int" >      122 </v>
   <v type="int" >      123 </v>
   <v type="int" >      124 </v>
   <v type="int" >      125 </v>
   <v type="int" >      126 </v>
   <v type="int" >      127 </v>
   <v type="int" >      128 </v>
   <v type="int" >      129 </v>
   <v type="int" >      130 </v>
   <v type="int" >      131 </v>
   <v type="int" >      132 </v>
   <v type="int" >      133 </v>
   <v type="int" >      134 </v>
   <v type="int" >      135 </v>
   <v type="int" >      136 </v>
   <v type="int" >      137 </v>
   <v type="int" >      138 </v>
   <v type="int" >      139 </v>
   <v type="int" >      140 </v>
   <v type="int" >      141 </v>
   <v type="int" >      142 </v>
   <v type="int" >      143 </v>
   <v type="int" >      144 </v>
   <v type="int" >      145 </v>
   <v type="int" >      146 </v>
   <v type="int" >      147 </v>
   <v type="int" >      148 </v>
   <v type="int" >      149 </v>
   <v type="int" >      150 </v>
   <v type="int" >      151 </v>
   <v type="int" >      152 </v>
   <v type="int" >      153 </v>
   <v type="int" >      154 </v>
   <v type="int" >      155 </v>
   <v type="int" >      156 </v>
   <v type="int" >      157 </v>
   <v type="int" >      158 </v>
   <v type="int" >      159 </v>
   <v type="int" >      160 </v>
   <v type="int" >      161 </v>
   <v type="int" >      162 </v>
   <v type="int" >      163 </v>
   <v type="int" >      164 </v>
   <v type="int" >      165 </v>
   <v type="int" >      166 </v>
   <v type="int" >      167 </v>
   <v type="int" >      168 </v>
   <v type="int" >      169 </v>
   <v type="int" >      170 </v>
   <v type="int" >      171 </v>
   <v type="int" >      172 </v>
   <v type="int" >      173 </v>
   <v type="int" >      174 </v>
   <v type="int" >      175 </v>
   <v type="int" >      176 </v>
   <v type="int" >      177 </v>
   <v type="int" >      178 </v>
   <v type="int" >      179 </v>
   <v type="int" >      180 </v>
   <v type="int" >      181 </v>
   <v type="int" >      182 </v>
   <v type="int" >      183 </v>
   <v type="int" >      184 </v>
   <v type="int" >      185 </v>
   <v type="int" >      186 </v>
   <v type="int" >      187 </v>
   <v type="int" >      188 </v>
   <v type="int" >      189 </v>
   <v type="int" >      190 </v>
   <v type="int" >      191 </v>
   <v type="int" >      192 </v>
   <v type="int" >      193 </v>
   <v type="int" >      194 </v>
   <v type="int" >      195 </v>
   <v type="int" >      196 </v>
   <v type="int" >      197 </v>
   <v type="int" >      198 </v>
   <v type="int" >      199 </v>
   <v type="int" >      200 </v>
   <v type="int" >      201 </v>
   <v type="int" >      202 </v>
   <v type="int" >      203 </v>
   <v type="int" >      204 </v>
   <v type="int" >      205 </v>
   <v type="int" >      206 </v>
   <v type="int" >      207 </v>
   <v type="int" >      208 </v>
   <v type="int" >      209 </v>
   <v type="int" >      210 </v>
   <v type="int" >      211 </v>
   <v type="int" >      212 </v>
   <v type="int" >      213 </v>
   <v type="int" >      214 </v>
   <v type="int" >      215 </v>
   <v type="int" >      216 </v>
   <v type="int" >      217 </v>
   <v type="int" >      218 </v>
   <v type="int" >      219 </v>
   <v type="int" >      220 </v>
   <v type="int" >      221 </v>
   <v type="int" >      222 </v>
   <v type="int" >      223 </v>
   <v type="int" >      224 </v>
   <v type="int" >      225 </v>
   <v type="int" >      226 </v>
   <v type="int" >      227 </v>
   <v type="int" >      228 </v>
   <v type="int" >      229 </v>
   <v type="int" >      230 </v>
   <v type="int" >      231 </v>
   <v type="int" >      232 </v>
   <v type="int" >      233 </v>
   <v type="int" >      234 </v>
   <v type="int" >      235 </v>
   <v type="int" >      236 </v>
   <v type="int" >      237 </v>
   <v type="int" >      238 </v>
   <v type="int" >      239 </v>
   <v type="int" >      240 </v>
   <v type="int" >      241 </v>
   <v type="int" >      242 </v>
   <v type="int" >      243 </v>
   <v type="int" >      244 </v>
   <v type="int" >      245 </v>
   <v type="int" >      246 </v>
   <v type="int" >      247 </v>
   <v type="int" >      248 </v>
   <v type="int" >      249 </v>
   <v type="int" >      250 </v>
   <v type="int" >      251 </v>
   <v type="int" >      252 </v>
   <v type="int" >      253 </v>
   <v type="int" >      254 </v>
  </varray>
 </primitive_cell>
 <kpoints>
  <generation param="Gamma">
   <v type="int" name="divisions">       2        2        1 </v>
   <v name="usershift">      0.00000000       0.00000000       0.00000000 </v>
   <v name="genvec1">      0.50000000      -0.00000000       0.00000000 </v>
   <v name="genvec2">      0.00000000       0.50000000       0.00000000 </v>
   <v name="genvec3">      0.00000000       0.00000000       1.00000000 </v>
   <v name="shift">      0.00000000       0.00000000       0.00000000 </v>
  </generation>
  <varray name="kpointlist" >
   <v>       0.00000000       0.00000000       0.00000000 </v>
   <v>       0.50000000       0.00000000       0.00000000 </v>
   <v>       0.50000000       0.50000000       0.00000000 </v>
   <v>       0.00000000       0.50000000       0.00000000 </v>
  </varray>
  <varray name="weights" >
   <v>       0.25000000 </v>
   <v>       0.25000000 </v>
   <v>       0.25000000 </v>
   <v>       0.25000000 </v>
  </varray>
 </kpoints>
 <parameters>
  <separator name="general" >
   <i type="string" name="SYSTEM">NiAl</i>
   <i type="logical" name="LCOMPAT"> F  </i>
  </separator>
  <separator name="electronic" >
   <i type="string" name="PREC">normal</i>
   <i name="ENMAX">    360.00000000</i>
   <i name="ENAUG">   1139.60900000</i>
   <i name="EDIFF">      0.00000500</i>
   <i type="int" name="IALGO">    38</i>
   <i type="int" name="IWAVPR">    10</i>
   <i type="int" name="NBANDS">  1519</i>
   <i type="int" name="NBANDSLOW">    -1</i>
   <i type="int" name="NBANDSHIGH">    -1</i>
   <i name="NELECT">   2532.00000000</i>
   <i type="int" name="TURBO">     0</i>
   <i type="int" name="IRESTART">     0</i>
   <i type="int" name="NREBOOT">     0</i>
   <i type="int" name="NMIN">     0</i>
   <i name="EREF">      0.00000000</i>
   <separator name="electronic smearing" >
    <i type="int" name="ISMEAR">     0</i>
    <i name="SIGMA">      0.05000000</i>
    <i name="KSPACING">      0.50000000</i>
    <i type="logical" name="KGAMMA"> T  </i>
    <i type="logical" name="KBLOWUP"> T  </i>
   </separator>
   <separator name="electronic projectors" >
    <i type="logical" name="LREAL"> T  </i>
    <v name="ROPT">     -0.00050000     -0.00050000</v>
    <i type="int" name="LMAXPAW">  -100</i>
    <i type="int" name="LMAXMIX">     2</i>
    <i type="logical" name="NLSPLINE"> F  </i>
   </separator>
   <separator name="electronic startup" >
    <i type="int" name="ISTART">     0</i>
    <i type="int" name="ICHARG">     2</i>
    <i type="int" name="INIWAV">     1</i>
   </separator>
   <separator name="electronic spin" >
    <i type="int" name="ISPIN">     1</i>
    <i type="logical" name="LNONCOLLINEAR"> F  </i>
    <v name="MAGMOM">      1.00000000      1.00000000      1.00000000      1.00000000      1.00000000      1.00000000      1.00000000      1.00000000      1.00000000      1.00000000      1.00000000      1.00000000      1.00000000      1.00000000      1.00000000      1.00000000      1.00000000      1.00000000      1.00000000      1.00000000
      1.00000000      1.00000000      1.00000000      1.00000000      1.00000000      1.00000000      1.00000000      1.00000000      1.00000000      1.00000000      1.00000000      1.00000000      1.00000000      1.00000000      1.00000000      1.00000000      1.00000000      1.00000000      1.00000000      1.00000000
      1.00000000      1.00000000      1.00000000      1.00000000      1.00000000      1.00000000      1.00000000      1.00000000      1.00000000      1.00000000      1.00000000      1.00000000      1.00000000      1.00000000      1.00000000      1.00000000      1.00000000      1.00000000      1.00000000      1.00000000
      1.00000000      1.00000000      1.00000000      1.00000000      1.00000000      1.00000000      1.00000000      1.00000000      1.00000000      1.00000000      1.00000000      1.00000000      1.00000000      1.00000000      1.00000000      1.00000000      1.00000000      1.00000000      1.00000000      1.00000000
      1.00000000      1.00000000      1.00000000      1.00000000      1.00000000      1.00000000      1.00000000      1.00000000      1.00000000      1.00000000      1.00000000      1.00000000      1.00000000      1.00000000      1.00000000      1.00000000      1.00000000      1.00000000      1.00000000      1.00000000
      1.00000000      1.00000000      1.00000000      1.00000000      1.00000000      1.00000000      1.00000000      1.00000000      1.00000000      1.00000000      1.00000000      1.00000000      1.00000000      1.00000000      1.00000000      1.00000000      1.00000000      1.00000000      1.00000000      1.00000000
      1.00000000      1.00000000      1.00000000      1.00000000      1.00000000      1.00000000      1.00000000      1.00000000      1.00000000      1.00000000      1.00000000      1.00000000      1.00000000      1.00000000      1.00000000      1.00000000      1.00000000      1.00000000      1.00000000      1.00000000
      1.00000000      1.00000000      1.00000000      1.00000000      1.00000000      1.00000000      1.00000000      1.00000000      1.00000000      1.00000000      1.00000000      1.00000000      1.00000000      1.00000000      1.00000000      1.00000000      1.00000000      1.00000000      1.00000000      1.00000000
      1.00000000      1.00000000      1.00000000      1.00000000      1.00000000      1.00000000      1.00000000      1.00000000      1.00000000      1.00000000      1.00000000      1.00000000      1.00000000      1.00000000      1.00000000      1.00000000      1.00000000      1.00000000      1.00000000      1.00000000
      1.00000000      1.00000000      1.00000000      1.00000000      1.00000000      1.00000000      1.00000000      1.00000000      1.00000000      1.00000000      1.00000000      1.00000000      1.00000000      1.00000000      1.00000000      1.00000000      1.00000000      1.00000000      1.00000000      1.00000000
      1.00000000      1.00000000      1.00000000      1.00000000      1.00000000      1.00000000      1.00000000      1.00000000      1.00000000      1.00000000      1.00000000      1.00000000      1.00000000      1.00000000      1.00000000      1.00000000      1.00000000      1.00000000      1.00000000      1.00000000
      1.00000000      1.00000000      1.00000000      1.00000000      1.00000000      1.00000000      1.00000000      1.00000000      1.00000000      1.00000000      1.00000000      1.00000000      1.00000000      1.00000000      1.00000000      1.00000000      1.00000000      1.00000000      1.00000000      1.00000000
      1.00000000      1.00000000      1.00000000      1.00000000      1.00000000      1.00000000      1.00000000      1.00000000      1.00000000      1.00000000      1.00000000      1.00000000      1.00000000      1.00000000</v>
    <i name="NUPDOWN">     -1.00000000</i>
    <i type="logical" name="LSORBIT"> F  </i>
    <v name="SAXIS">      0.00000000      0.00000000      1.00000000</v>
    <i type="logical" name="LSPIRAL"> F  </i>
    <v name="QSPIRAL">      0.00000000      0.00000000      0.00000000</v>
    <i type="logical" name="LZEROZ"> F  </i>
   </separator>
   <separator name="electronic exchange-correlation" >
    <i type="logical" name="LASPH"> F  </i>
    <i type="logical" name="LMETAGGA"> F  </i>
   </separator>
   <separator name="electronic convergence" >
    <i type="int" name="NELM">   250</i>
    <i type="int" name="NELMDL">    -5</i>
    <i type="int" name="NELMIN">     6</i>
    <i name="ENINI">    360.00000000</i>
    <separator name="electronic convergence detail" >
     <i type="logical" name="LDIAG"> T  </i>
     <i type="logical" name="LSUBROT"> F  </i>
     <i name="WEIMIN">      0.00000000</i>
     <i name="EBREAK">      0.00000000</i>
     <i name="DEPER">      0.30000000</i>
     <i type="int" name="NRMM">     4</i>
     <i name="TIME">      0.40000000</i>
    </separator>
   </separator>
   <separator name="electronic mixer" >
    <i name="AMIX">      0.40000000</i>
    <i name="BMIX">      1.00000000</i>
    <i name="AMIN">      0.10000000</i>
    <i name="AMIX_MAG">      1.60000000</i>
    <i name="BMIX_MAG">      1.00000000</i>
    <separator name="electronic mixer details" >
     <i type="int" name="IMIX">     4</i>
     <i type="logical" name="MIXFIRST"> F  </i>
     <i type="int" name="MAXMIX">   -45</i>
     <i name="WC">    100.00000000</i>
     <i type="int" name="INIMIX">     1</i>
     <i type="int" name="MIXPRE">     1</i>
     <i type="int" name="MREMOVE">     5</i>
    </separator>
   </separator>
   <separator name="electronic dipolcorrection" >
    <i type="logical" name="LDIPOL"> F  </i>
    <i type="logical" name="LMONO"> F  </i>
    <i type="int" name="IDIPOL">     0</i>
    <i name="EPSILON">      1.00000000</i>
    <v name="DIPOL">   -100.00000000   -100.00000000   -100.00000000</v>
    <i name="EFIELD">      0.00000000</i>
   </separator>
  </separator>
  <separator name="grids" >
   <i type="int" name="NGX">    70</i>
   <i type="int" name="NGY">    70</i>
   <i type="int" name="NGZ">   140</i>
   <i type="int" name="NGXF">   140</i>
   <i type="int" name="NGYF">   140</i>
   <i type="int" name="NGZF">   280</i>
   <i type="logical" name="ADDGRID"> F  </i>
  </separator>
  <separator name="ionic" >
   <i type="int" name="NSW">     0</i>
   <i type="int" name="IBRION">    -1</i>
   <i type="int" name="MDALGO">     0</i>
   <i type="int" name="ISIF">     0</i>
   <i name="PSTRESS">      0.00000000</i>
   <i name="EDIFFG">      0.00005000</i>
   <i type="int" name="NFREE">     0</i>
   <i name="POTIM">      0.50000000</i>
   <i name="SMASS">     -3.00000000</i>
   <i name="SCALEE">      1.00000000</i>
  </separator>
  <separator name="ionic md" >
   <i name="TEBEG">      0.00010000</i>
   <i name="TEEND">      0.00010000</i>
   <i type="int" name="NBLOCK">     1</i>
   <i type="int" name="KBLOCK">     1</i>
   <i type="int" name="NPACO">   256</i>
   <i name="APACO">     16.00000000</i>
  </separator>
  <separator name="symmetry" >
   <i type="int" name="ISYM">     2</i>
   <i name="SYMPREC">      0.00001000</i>
  </separator>
  <separator name="dos" >
   <i type="int" name="LORBIT">     0</i>
   <v name="RWIGS">     -1.00000000     -1.00000000</v>
   <i type="int" name="NEDOS">   301</i>
   <i name="EMIN">     10.00000000</i>
   <i name="EMAX">    -10.00000000</i>
   <i name="EFERMI">      0.00000000</i>
  </separator>
  <separator name="writing" >
   <i type="int" name="NWRITE">     2</i>
   <i type="logical" name="LWAVE"> F  </i>
   <i type="logical" name="LDOWNSAMPLE"> F  </i>
   <i type="logical" name="LCHARG"> F  </i>
   <i type="logical" name="LPARD"> F  </i>
   <i type="logical" name="LVTOT"> F  </i>
   <i type="logical" name="LVHAR"> F  </i>
   <i type="logical" name="LELF"> F  </i>
   <i type="logical" name="LOPTICS"> F  </i>
   <v name="STM">      0.00000000      0.00000000      0.00000000      0.00000000      0.00000000      0.00000000      0.00000000</v>
  </separator>
  <separator name="performance" >
   <i type="int" name="NPAR">     1</i>
   <i type="int" name="NSIM">     4</i>
   <i type="int" name="NBLK">    -1</i>
   <i type="logical" name="LPLANE"> T  </i>
   <i type="logical" name="LSCALAPACK"> T  </i>
   <i type="logical" name="LSCAAWARE"> F  </i>
   <i type="logical" name="LSCALU"> F  </i>
   <i type="logical" name="LASYNC"> F  </i>
   <i type="logical" name="LORBITALREAL"> F  </i>
  </separator>
  <separator name="miscellaneous" >
   <i type="int" name="IDIOT">     3</i>
   <i type="int" name="PHON_NSTRUCT">    -1</i>
   <i type="logical" name="LMUSIC"> F  </i>
   <v name="POMASS">     58.69000000     16.00000000</v>
   <v name="DARWINR">      0.00000000      0.00000000</v>
   <v name="DARWINV">      1.00000000      1.00000000</v>
   <i type="logical" name="LCORR"> T  </i>
  </separator>
  <i type="logical" name="GGA_COMPAT"> T  </i>
  <i type="logical" name="LBERRY"> F  </i>
  <i type="int" name="ICORELEVEL">     0</i>
  <i type="logical" name="LDAU"> F  </i>
  <i type="int" name="I_CONSTRAINED_M">     0</i>
  <separator name="electronic exchange-correlation" >
   <i type="string" name="GGA">--</i>
   <i type="int" name="VOSKOWN">     0</i>
   <i type="logical" name="LHFCALC"> F  </i>
   <i type="string" name="PRECFOCK"></i>
   <i type="logical" name="LSYMGRAD"> F  </i>
   <i type="logical" name="LHFONE"> F  </i>
   <i type="logical" name="LRHFCALC"> F  </i>
   <i type="logical" name="LTHOMAS"> F  </i>
   <i type="logical" name="LMODELHF"> F  </i>
   <i type="logical" name="LFOCKACE"> F  </i>
   <i name="ENCUT4O">     -1.00000000</i>
   <i type="int" name="EXXOEP">     0</i>
   <i type="int" name="FOURORBIT">     0</i>
   <i name="AEXX">      0.00000000</i>
   <i name="HFALPHA">      0.00000000</i>
   <i name="MCALPHA">      0.00000000</i>
   <i name="ALDAX">      1.00000000</i>
   <i name="AGGAX">      1.00000000</i>
   <i name="ALDAC">      1.00000000</i>
   <i name="AGGAC">      1.00000000</i>
   <i type="int" name="NKREDX">     1</i>
   <i type="int" name="NKREDY">     1</i>
   <i type="int" name="NKREDZ">     1</i>
   <i type="logical" name="SHIFTRED"> F  </i>
   <i type="logical" name="ODDONLY"> F  </i>
   <i type="logical" name="EVENONLY"> F  </i>
   <i type="int" name="LMAXFOCK">     0</i>
   <i type="int" name="NMAXFOCKAE">     0</i>
   <i type="logical" name="LFOCKAEDFT"> F  </i>
   <i name="HFSCREEN">      0.00000000</i>
   <i name="HFSCREENC">      0.00000000</i>
   <i type="int" name="NBANDSGWLOW">     0</i>
  </separator>
  <separator name="vdW DFT" >
   <i type="logical" name="LUSE_VDW"> F  </i>
   <i name="Zab_VDW">     -0.84910000</i>
   <i name="PARAM1">      0.12340000</i>
   <i name="PARAM2">      1.00000000</i>
   <i name="PARAM3">      0.00000000</i>
  </separator>
  <separator name="model GW" >
   <i type="int" name="MODEL_GW">     0</i>
   <i name="MODEL_EPS0">     13.60989534</i>
   <i name="MODEL_ALPHA">      1.00000000</i>
  </separator>
  <separator name="linear response parameters" >
   <i type="logical" name="LEPSILON"> F  </i>
   <i type="logical" name="LRPA"> F  </i>
   <i type="logical" name="LNABLA"> F  </i>
   <i type="logical" name="LVEL"> F  </i>
   <i type="int" name="KINTER">     0</i>
   <i name="CSHIFT">      0.10000000</i>
   <i name="OMEGAMAX">     -1.00000000</i>
   <i name="DEG_THRESHOLD">      0.00200000</i>
   <i name="RTIME">     -0.10000000</i>
   <i name="WPLASMAI">      0.00000000</i>
   <v name="DFIELD">      0.00000000      0.00000000      0.00000000</v>
   <v name="WPLASMA">      0.00000000      0.00000000      0.00000000      0.00000000      0.00000000      0.00000000      0.00000000      0.00000000      0.00000000</v>
  </separator>
  <separator name="orbital magnetization" >
   <i type="logical" name="NUCIND"> F  </i>
   <v name="MAGPOS">      0.00000000      0.00000000      0.00000000</v>
   <i type="logical" name="LNICSALL"> T  </i>
   <i type="logical" name="ORBITALMAG"> F  </i>
   <i type="logical" name="LMAGBLOCH"> F  </i>
   <i type="logical" name="LCHIMAG"> F  </i>
   <i type="logical" name="LGAUGE"> T  </i>
   <i type="int" name="MAGATOM">     0</i>
   <v name="MAGDIPOL">      0.00000000      0.00000000      0.00000000</v>
   <v name="AVECCONST">      0.00000000      0.00000000      0.00000000</v>
  </separator>
  <separator name="response functions" >
   <i type="logical" name="LFINITE_TEMPERATURE"> F  </i>
   <i type="logical" name="LADDER"> F  </i>
   <i type="logical" name="LRPAFORCE"> F  </i>
   <i type="logical" name="LFXC"> F  </i>
   <i type="logical" name="LHARTREE"> T  </i>
   <i type="int" name="IBSE">     0</i>
   <v type="int" name="KPOINT">    -1     0     0     0</v>
   <i type="logical" name="LTCTC"> F  </i>
   <i type="logical" name="LTCTE"> F  </i>
   <i type="logical" name="LTETE"> F  </i>
   <i type="logical" name="LTRIPLET"> F  </i>
   <i type="logical" name="LFXCEPS"> F  </i>
   <i type="logical" name="LFXHEG"> F  </i>
   <i type="int" name="NATURALO">     2</i>
   <i type="logical" name="LHOLEGF"> F  </i>
   <i type="logical" name="L2ORDER"> F  </i>
   <i type="logical" name="LDMP1"> F  </i>
   <i type="logical" name="LMP2LT"> F  </i>
   <i type="logical" name="LSMP2LT"> F  </i>
   <i type="logical" name="LGWLF"> F  </i>
   <i name="ENCUTGW">     -2.00000000</i>
   <i name="ENCUTGWSOFT">     -2.00000000</i>
   <i name="ENCUTLF">     -1.00000000</i>
   <i type="logical" name="LESF_SPLINES"> F  </i>
   <i type="int" name="LMAXMP2">    -1</i>
   <i name="SCISSOR">      0.00000000</i>
   <i type="int" name="NOMEGA">     0</i>
   <i type="int" name="NOMEGAR">     0</i>
   <i type="int" name="NBANDSGW">    -1</i>
   <i type="int" name="NBANDSO">    -1</i>
   <i type="int" name="NBANDSV">    -1</i>
   <i type="int" name="NELM">   250</i>
   <i type="int" name="NELMHF">     1</i>
   <i type="int" name="DIM">     3</i>
   <i type="int" name="IESPILON">     4</i>
   <i type="int" name="ANTIRES">     0</i>
   <i name="OMEGAMAX">    -30.00000000</i>
   <i name="OMEGAMIN">    -30.00000000</i>
   <i name="OMEGATL">   -200.00000000</i>
   <i type="int" name="OMEGAGRID">     0</i>
   <i name="CSHIFT">     -0.10000000</i>
   <i type="logical" name="LSELFENERGY"> F  </i>
   <i type="logical" name="LSPECTRAL"> F  </i>
   <i type="logical" name="LSPECTRALGW"> F  </i>
   <i type="logical" name="LSINGLES"> F  </i>
   <i type="logical" name="LFERMIGW"> F  </i>
   <i type="logical" name="ODDONLYGW"> F  </i>
   <i type="logical" name="EVENONLYGW"> F  </i>
   <i type="int" name="NKREDLFX">     1</i>
   <i type="int" name="NKREDLFY">     1</i>
   <i type="int" name="NKREDLFZ">     1</i>
   <i type="int" name="MAXMEM">  2800</i>
   <i type="int" name="TELESCOPE">     0</i>
   <i type="int" name="NTAUPAR">    -1</i>
   <i type="int" name="NOMEGAPAR">    -1</i>
   <i name="DAMP_NEWTON">      0.80000001</i>
   <i name="LAMBDA">      1.00000000</i>
  </separator>
  <separator name="External order field" >
   <i name="OFIELD_KAPPA">      0.00000000</i>
   <v name="OFIELD_K">      0.00000000      0.00000000      0.00000000</v>
   <i name="OFIELD_Q6_NEAR">      0.00000000</i>
   <i name="OFIELD_Q6_FAR">      0.00000000</i>
   <i name="OFIELD_A">      0.00000000</i>
  </separator>
  <separator name="solvation model" >
   <i type="logical" name="LSOL"> F  </i>
  </separator>
 </parameters>
 <atominfo>
  <atoms>     254 </atoms>
  <types>       2 </types>
  <array name="atoms" >
   <dimension dim="1">ion</dimension>
   <field type="string">element</field>
   <field type="int">atomtype</field>
   <set>
    <rc><c>Ni</c><c>   1</c></rc>
    <rc><c>Ni</c><c>   1</c></rc>
    <rc><c>Ni</c><c>   1</c></rc>
    <rc><c>Ni</c><c>   1</c></rc>
    <rc><c>Ni</c><c>   1</c></rc>
    <rc><c>Ni</c><c>   1</c></rc>
    <rc><c>Ni</c><c>   1</c></rc>
    <rc><c>Ni</c><c>   1</c></rc>
    <rc><c>Ni</c><c>   1</c></rc>
    <rc><c>Ni</c><c>   1</c></rc>
    <rc><c>Ni</c><c>   1</c></rc>
    <rc><c>Ni</c><c>   1</c></rc>
    <rc><c>Ni</c><c>   1</c></rc>
    <rc><c>Ni</c><c>   1</c></rc>
    <rc><c>Ni</c><c>   1</c></rc>
    <rc><c>Ni</c><c>   1</c></rc>
    <rc><c>Ni</c><c>   1</c></rc>
    <rc><c>Ni</c><c>   1</c></rc>
    <rc><c>Ni</c><c>   1</c></rc>
    <rc><c>Ni</c><c>   1</c></rc>
    <rc><c>Ni</c><c>   1</c></rc>
    <rc><c>Ni</c><c>   1</c></rc>
    <rc><c>Ni</c><c>   1</c></rc>
    <rc><c>Ni</c><c>   1</c></rc>
    <rc><c>Ni</c><c>   1</c></rc>
    <rc><c>Ni</c><c>   1</c></rc>
    <rc><c>Ni</c><c>   1</c></rc>
    <rc><c>Ni</c><c>   1</c></rc>
    <rc><c>Ni</c><c>   1</c></rc>
    <rc><c>Ni</c><c>   1</c></rc>
    <rc><c>Ni</c><c>   1</c></rc>
    <rc><c>Ni</c><c>   1</c></rc>
    <rc><c>Ni</c><c>   1</c></rc>
    <rc><c>Ni</c><c>   1</c></rc>
    <rc><c>Ni</c><c>   1</c></rc>
    <rc><c>Ni</c><c>   1</c></rc>
    <rc><c>Ni</c><c>   1</c></rc>
    <rc><c>Ni</c><c>   1</c></rc>
    <rc><c>Ni</c><c>   1</c></rc>
    <rc><c>Ni</c><c>   1</c></rc>
    <rc><c>Ni</c><c>   1</c></rc>
    <rc><c>Ni</c><c>   1</c></rc>
    <rc><c>Ni</c><c>   1</c></rc>
    <rc><c>Ni</c><c>   1</c></rc>
    <rc><c>Ni</c><c>   1</c></rc>
    <rc><c>Ni</c><c>   1</c></rc>
    <rc><c>Ni</c><c>   1</c></rc>
    <rc><c>Ni</c><c>   1</c></rc>
    <rc><c>Ni</c><c>   1</c></rc>
    <rc><c>Ni</c><c>   1</c></rc>
    <rc><c>Ni</c><c>   1</c></rc>
    <rc><c>Ni</c><c>   1</c></rc>
    <rc><c>Ni</c><c>   1</c></rc>
    <rc><c>Ni</c><c>   1</c></rc>
    <rc><c>Ni</c><c>   1</c></rc>
    <rc><c>Ni</c><c>   1</c></rc>
    <rc><c>Ni</c><c>   1</c></rc>
    <rc><c>Ni</c><c>   1</c></rc>
    <rc><c>Ni</c><c>   1</c></rc>
    <rc><c>Ni</c><c>   1</c></rc>
    <rc><c>Ni</c><c>   1</c></rc>
    <rc><c>Ni</c><c>   1</c></rc>
    <rc><c>Ni</c><c>   1</c></rc>
    <rc><c>Ni</c><c>   1</c></rc>
    <rc><c>Ni</c><c>   1</c></rc>
    <rc><c>Ni</c><c>   1</c></rc>
    <rc><c>Ni</c><c>   1</c></rc>
    <rc><c>Ni</c><c>   1</c></rc>
    <rc><c>Ni</c><c>   1</c></rc>
    <rc><c>Ni</c><c>   1</c></rc>
    <rc><c>Ni</c><c>   1</c></rc>
    <rc><c>Ni</c><c>   1</c></rc>
    <rc><c>Ni</c><c>   1</c></rc>
    <rc><c>Ni</c><c>   1</c></rc>
    <rc><c>Ni</c><c>   1</c></rc>
    <rc><c>Ni</c><c>   1</c></rc>
    <rc><c>Ni</c><c>   1</c></rc>
    <rc><c>Ni</c><c>   1</c></rc>
    <rc><c>Ni</c><c>   1</c></rc>
    <rc><c>Ni</c><c>   1</c></rc>
    <rc><c>Ni</c><c>   1</c></rc>
    <rc><c>Ni</c><c>   1</c></rc>
    <rc><c>Ni</c><c>   1</c></rc>
    <rc><c>Ni</c><c>   1</c></rc>
    <rc><c>Ni</c><c>   1</c></rc>
    <rc><c>Ni</c><c>   1</c></rc>
    <rc><c>Ni</c><c>   1</c></rc>
    <rc><c>Ni</c><c>   1</c></rc>
    <rc><c>Ni</c><c>   1</c></rc>
    <rc><c>Ni</c><c>   1</c></rc>
    <rc><c>Ni</c><c>   1</c></rc>
    <rc><c>Ni</c><c>   1</c></rc>
    <rc><c>Ni</c><c>   1</c></rc>
    <rc><c>Ni</c><c>   1</c></rc>
    <rc><c>Ni</c><c>   1</c></rc>
    <rc><c>Ni</c><c>   1</c></rc>
    <rc><c>Ni</c><c>   1</c></rc>
    <rc><c>Ni</c><c>   1</c></rc>
    <rc><c>Ni</c><c>   1</c></rc>
    <rc><c>Ni</c><c>   1</c></rc>
    <rc><c>Ni</c><c>   1</c></rc>
    <rc><c>Ni</c><c>   1</c></rc>
    <rc><c>Ni</c><c>   1</c></rc>
    <rc><c>Ni</c><c>   1</c></rc>
    <rc><c>Ni</c><c>   1</c></rc>
    <rc><c>Ni</c><c>   1</c></rc>
    <rc><c>Ni</c><c>   1</c></rc>
    <rc><c>Ni</c><c>   1</c></rc>
    <rc><c>Ni</c><c>   1</c></rc>
    <rc><c>Ni</c><c>   1</c></rc>
    <rc><c>Ni</c><c>   1</c></rc>
    <rc><c>Ni</c><c>   1</c></rc>
    <rc><c>Ni</c><c>   1</c></rc>
    <rc><c>Ni</c><c>   1</c></rc>
    <rc><c>Ni</c><c>   1</c></rc>
    <rc><c>Ni</c><c>   1</c></rc>
    <rc><c>Ni</c><c>   1</c></rc>
    <rc><c>Ni</c><c>   1</c></rc>
    <rc><c>Ni</c><c>   1</c></rc>
    <rc><c>Ni</c><c>   1</c></rc>
    <rc><c>Ni</c><c>   1</c></rc>
    <rc><c>Ni</c><c>   1</c></rc>
    <rc><c>Ni</c><c>   1</c></rc>
    <rc><c>Ni</c><c>   1</c></rc>
    <rc><c>Ni</c><c>   1</c></rc>
    <rc><c>Ni</c><c>   1</c></rc>
    <rc><c>Ni</c><c>   1</c></rc>
    <rc><c>Ni</c><c>   1</c></rc>
    <rc><c>Ni</c><c>   1</c></rc>
    <rc><c>Ni</c><c>   1</c></rc>
    <rc><c>Ni</c><c>   1</c></rc>
    <rc><c>Ni</c><c>   1</c></rc>
    <rc><c>Ni</c><c>   1</c></rc>
    <rc><c>Ni</c><c>   1</c></rc>
    <rc><c>Ni</c><c>   1</c></rc>
    <rc><c>Ni</c><c>   1</c></rc>
    <rc><c>Ni</c><c>   1</c></rc>
    <rc><c>Ni</c><c>   1</c></rc>
    <rc><c>Ni</c><c>   1</c></rc>
    <rc><c>Ni</c><c>   1</c></rc>
    <rc><c>Ni</c><c>   1</c></rc>
    <rc><c>Ni</c><c>   1</c></rc>
    <rc><c>Ni</c><c>   1</c></rc>
    <rc><c>Ni</c><c>   1</c></rc>
    <rc><c>Ni</c><c>   1</c></rc>
    <rc><c>Ni</c><c>   1</c></rc>
    <rc><c>Ni</c><c>   1</c></rc>
    <rc><c>Ni</c><c>   1</c></rc>
    <rc><c>Ni</c><c>   1</c></rc>
    <rc><c>Ni</c><c>   1</c></rc>
    <rc><c>Ni</c><c>   1</c></rc>
    <rc><c>Ni</c><c>   1</c></rc>
    <rc><c>Ni</c><c>   1</c></rc>
    <rc><c>Ni</c><c>   1</c></rc>
    <rc><c>Ni</c><c>   1</c></rc>
    <rc><c>Ni</c><c>   1</c></rc>
    <rc><c>Ni</c><c>   1</c></rc>
    <rc><c>Ni</c><c>   1</c></rc>
    <rc><c>Ni</c><c>   1</c></rc>
    <rc><c>Ni</c><c>   1</c></rc>
    <rc><c>Ni</c><c>   1</c></rc>
    <rc><c>Ni</c><c>   1</c></rc>
    <rc><c>Ni</c><c>   1</c></rc>
    <rc><c>Ni</c><c>   1</c></rc>
    <rc><c>Ni</c><c>   1</c></rc>
    <rc><c>Ni</c><c>   1</c></rc>
    <rc><c>Ni</c><c>   1</c></rc>
    <rc><c>Ni</c><c>   1</c></rc>
    <rc><c>Ni</c><c>   1</c></rc>
    <rc><c>Ni</c><c>   1</c></rc>
    <rc><c>Ni</c><c>   1</c></rc>
    <rc><c>Ni</c><c>   1</c></rc>
    <rc><c>Ni</c><c>   1</c></rc>
    <rc><c>Ni</c><c>   1</c></rc>
    <rc><c>Ni</c><c>   1</c></rc>
    <rc><c>Ni</c><c>   1</c></rc>
    <rc><c>Ni</c><c>   1</c></rc>
    <rc><c>Ni</c><c>   1</c></rc>
    <rc><c>Ni</c><c>   1</c></rc>
    <rc><c>Ni</c><c>   1</c></rc>
    <rc><c>Ni</c><c>   1</c></rc>
    <rc><c>Ni</c><c>   1</c></rc>
    <rc><c>Ni</c><c>   1</c></rc>
    <rc><c>Ni</c><c>   1</c></rc>
    <rc><c>Ni</c><c>   1</c></rc>
    <rc><c>Ni</c><c>   1</c></rc>
    <rc><c>Ni</c><c>   1</c></rc>
    <rc><c>Ni</c><c>   1</c></rc>
    <rc><c>Ni</c><c>   1</c></rc>
    <rc><c>Ni</c><c>   1</c></rc>
    <rc><c>Ni</c><c>   1</c></rc>
    <rc><c>Ni</c><c>   1</c></rc>
    <rc><c>Ni</c><c>   1</c></rc>
    <rc><c>Ni</c><c>   1</c></rc>
    <rc><c>Ni</c><c>   1</c></rc>
    <rc><c>Ni</c><c>   1</c></rc>
    <rc><c>Ni</c><c>   1</c></rc>
    <rc><c>Ni</c><c>   1</c></rc>
    <rc><c>Ni</c><c>   1</c></rc>
    <rc><c>Ni</c><c>   1</c></rc>
    <rc><c>Ni</c><c>   1</c></rc>
    <rc><c>Ni</c><c>   1</c></rc>
    <rc><c>Ni</c><c>   1</c></rc>
    <rc><c>Ni</c><c>   1</c></rc>
    <rc><c>Ni</c><c>   1</c></rc>
    <rc><c>Ni</c><c>   1</c></rc>
    <rc><c>Ni</c><c>   1</c></rc>
    <rc><c>Ni</c><c>   1</c></rc>
    <rc><c>Ni</c><c>   1</c></rc>
    <rc><c>Ni</c><c>   1</c></rc>
    <rc><c>Ni</c><c>   1</c></rc>
    <rc><c>Ni</c><c>   1</c></rc>
    <rc><c>Ni</c><c>   1</c></rc>
    <rc><c>Ni</c><c>   1</c></rc>
    <rc><c>Ni</c><c>   1</c></rc>
    <rc><c>Ni</c><c>   1</c></rc>
    <rc><c>Ni</c><c>   1</c></rc>
    <rc><c>Ni</c><c>   1</c></rc>
    <rc><c>Ni</c><c>   1</c></rc>
    <rc><c>Ni</c><c>   1</c></rc>
    <rc><c>Ni</c><c>   1</c></rc>
    <rc><c>Ni</c><c>   1</c></rc>
    <rc><c>Ni</c><c>   1</c></rc>
    <rc><c>Ni</c><c>   1</c></rc>
    <rc><c>Ni</c><c>   1</c></rc>
    <rc><c>Ni</c><c>   1</c></rc>
    <rc><c>Ni</c><c>   1</c></rc>
    <rc><c>Ni</c><c>   1</c></rc>
    <rc><c>Ni</c><c>   1</c></rc>
    <rc><c>Ni</c><c>   1</c></rc>
    <rc><c>Ni</c><c>   1</c></rc>
    <rc><c>Ni</c><c>   1</c></rc>
    <rc><c>Ni</c><c>   1</c></rc>
    <rc><c>Ni</c><c>   1</c></rc>
    <rc><c>Ni</c><c>   1</c></rc>
    <rc><c>Ni</c><c>   1</c></rc>
    <rc><c>Ni</c><c>   1</c></rc>
    <rc><c>Ni</c><c>   1</c></rc>
    <rc><c>Ni</c><c>   1</c></rc>
    <rc><c>Ni</c><c>   1</c></rc>
    <rc><c>Ni</c><c>   1</c></rc>
    <rc><c>Ni</c><c>   1</c></rc>
    <rc><c>Ni</c><c>   1</c></rc>
    <rc><c>Ni</c><c>   1</c></rc>
    <rc><c>Ni</c><c>   1</c></rc>
    <rc><c>Ni</c><c>   1</c></rc>
    <rc><c>Ni</c><c>   1</c></rc>
    <rc><c>Ni</c><c>   1</c></rc>
    <rc><c>Ni</c><c>   1</c></rc>
    <rc><c>Ni</c><c>   1</c></rc>
    <rc><c>Ni</c><c>   1</c></rc>
    <rc><c>Ni</c><c>   1</c></rc>
    <rc><c>O </c><c>   2</c></rc>
    <rc><c>O </c><c>   2</c></rc>
   </set>
  </array>
  <array name="atomtypes" >
   <dimension dim="1">type</dimension>
   <field type="int">atomspertype</field>
   <field type="string">element</field>
   <field>mass</field>
   <field>valence</field>
   <field type="string">pseudopotential</field>
   <set>
    <rc><c> 252</c><c>Ni</c><c>     58.69000000</c><c>     10.00000000</c><c>  PAW Ni_GW 31Mar2010                   </c></rc>
    <rc><c>   2</c><c>O </c><c>     16.00000000</c><c>      6.00000000</c><c>  PAW O_GW 19Mar2012                    </c></rc>
   </set>
  </array>
 </atominfo>
 <structure name="initialpos" >
  <crystal>
   <varray name="basis" >
    <v>       0.00000000     -15.14622176       0.00000000 </v>
    <v>       0.00000000      -7.57311088     -13.11701281 </v>
    <v>      29.00000000       0.00000000       0.00000000 </v>
   </varray>
   <i name="volume">   5761.52236213 </i>
   <varray name="rec_basis" >
    <v>       0.00000000      -0.06602307       0.03811843 </v>
    <v>       0.00000000       0.00000000      -0.07623687 </v>
    <v>       0.03448276       0.00000000       0.00000000 </v>
   </varray>
  </crystal>
  <varray name="positions" >
   <v>       0.44444450       0.44444418       0.10434517 </v>
   <v>       0.44444439       0.77777770       0.10434517 </v>
   <v>       0.44444423       0.11111143       0.10434517 </v>
   <v>       0.77777779       0.44444418       0.10434517 </v>
   <v>       0.77777768       0.77777770       0.10434517 </v>
   <v>       0.77777752       0.11111143       0.10434517 </v>
   <v>       0.11111120       0.44444418       0.10434517 </v>
   <v>       0.11111109       0.77777770       0.10434517 </v>
   <v>       0.11111093       0.11111143       0.10434517 </v>
   <v>       0.55555543       0.55555561       0.17318552 </v>
   <v>       0.55555532       0.88888912       0.17318552 </v>
   <v>       0.55555554       0.22222209       0.17318552 </v>
   <v>       0.88888873       0.55555561       0.17318552 </v>
   <v>       0.88888862       0.88888912       0.17318552 </v>
   <v>       0.88888884       0.22222209       0.17318552 </v>
   <v>       0.22222214       0.55555561       0.17318552 </v>
   <v>       0.22222203       0.88888912       0.17318552 </v>
   <v>       0.22222225       0.22222209       0.17318552 </v>
   <v>       0.66666637       0.66666703       0.24249897 </v>
   <v>       0.66666659       0.00000000       0.24249897 </v>
   <v>       0.66666648       0.33333352       0.24249897 </v>
   <v>       0.99999978       0.66666703       0.24249897 </v>
   <v>       0.00000000       0.00000000       0.24249897 </v>
   <v>       0.99999989       0.33333352       0.24249897 </v>
   <v>       0.33333307       0.66666703       0.24249897 </v>
   <v>       0.33333329       0.00000000       0.24249897 </v>
   <v>       0.33333318       0.33333352       0.24249897 </v>
   <v>       0.77777768       0.77777770       0.31173069 </v>
   <v>       0.77777752       0.11111143       0.31173069 </v>
   <v>       0.77777779       0.44444418       0.31173069 </v>
   <v>       0.11111109       0.77777770       0.31173069 </v>
   <v>       0.11111093       0.11111143       0.31173069 </v>
   <v>       0.11111120       0.44444418       0.31173069 </v>
   <v>       0.44444439       0.77777770       0.31173069 </v>
   <v>       0.44444423       0.11111143       0.31173069 </v>
   <v>       0.44444450       0.44444418       0.31173069 </v>
   <v>       0.88888862       0.88888912       0.38096241 </v>
   <v>       0.88888884       0.22222209       0.38096241 </v>
   <v>       0.88888873       0.55555561       0.38096241 </v>
   <v>       0.22222203       0.88888912       0.38096241 </v>
   <v>       0.22222225       0.22222209       0.38096241 </v>
   <v>       0.22222214       0.55555561       0.38096241 </v>
   <v>       0.55555532       0.88888912       0.38096241 </v>
   <v>       0.55555554       0.22222209       0.38096241 </v>
   <v>       0.55555543       0.55555561       0.38096241 </v>
   <v>       0.00000000       0.00000000       0.45027586 </v>
   <v>       0.99999989       0.33333352       0.45027586 </v>
   <v>       0.99999978       0.66666703       0.45027586 </v>
   <v>       0.33333329       0.00000000       0.45027586 </v>
   <v>       0.33333318       0.33333352       0.45027586 </v>
   <v>       0.33333307       0.66666703       0.45027586 </v>
   <v>       0.66666659       0.00000000       0.45027586 </v>
   <v>       0.66666648       0.33333352       0.45027586 </v>
   <v>       0.66666637       0.66666703       0.45027586 </v>
   <v>       0.11111093       0.11111143       0.51911621 </v>
   <v>       0.11111120       0.44444418       0.51911621 </v>
   <v>       0.11111109       0.77777770       0.51911621 </v>
   <v>       0.44444423       0.11111143       0.51911621 </v>
   <v>       0.44444450       0.44444418       0.51911621 </v>
   <v>       0.44444439       0.77777770       0.51911621 </v>
   <v>       0.77777752       0.11111143       0.51911621 </v>
   <v>       0.77777779       0.44444418       0.51911621 </v>
   <v>       0.77777768       0.77777770       0.51911621 </v>
   <v>       0.27777824       0.27777742       0.10434517 </v>
   <v>       0.27777813       0.61111094       0.10434517 </v>
   <v>       0.27777802       0.94444445       0.10434517 </v>
   <v>       0.61111153       0.27777742       0.10434517 </v>
   <v>       0.61111142       0.61111094       0.10434517 </v>
   <v>       0.61111131       0.94444445       0.10434517 </v>
   <v>       0.94444483       0.27777742       0.10434517 </v>
   <v>       0.94444472       0.61111094       0.10434517 </v>
   <v>       0.94444461       0.94444445       0.10434517 </v>
   <v>       0.38888917       0.38888885       0.17318552 </v>
   <v>       0.38888906       0.72222236       0.17318552 </v>
   <v>       0.38888928       0.05555533       0.17318552 </v>
   <v>       0.72222247       0.38888885       0.17318552 </v>
   <v>       0.72222236       0.72222236       0.17318552 </v>
   <v>       0.72222258       0.05555533       0.17318552 </v>
   <v>       0.05555588       0.38888885       0.17318552 </v>
   <v>       0.05555577       0.72222236       0.17318552 </v>
   <v>       0.05555599       0.05555533       0.17318552 </v>
   <v>       0.50000011       0.50000027       0.24249897 </v>
   <v>       0.50000038       0.83333303       0.24249897 </v>
   <v>       0.50000022       0.16666676       0.24249897 </v>
   <v>       0.83333340       0.50000027       0.24249897 </v>
   <v>       0.83333367       0.83333303       0.24249897 </v>
   <v>       0.83333351       0.16666676       0.24249897 </v>
   <v>       0.16666681       0.50000027       0.24249897 </v>
   <v>       0.16666708       0.83333303       0.24249897 </v>
   <v>       0.16666692       0.16666676       0.24249897 </v>
   <v>       0.61111142       0.61111094       0.31173069 </v>
   <v>       0.61111131       0.94444445       0.31173069 </v>
   <v>       0.61111153       0.27777742       0.31173069 </v>
   <v>       0.94444472       0.61111094       0.31173069 </v>
   <v>       0.94444461       0.94444445       0.31173069 </v>
   <v>       0.94444483       0.27777742       0.31173069 </v>
   <v>       0.27777813       0.61111094       0.31173069 </v>
   <v>       0.27777802       0.94444445       0.31173069 </v>
   <v>       0.27777824       0.27777742       0.31173069 </v>
   <v>       0.72222236       0.72222236       0.38096241 </v>
   <v>       0.72222258       0.05555533       0.38096241 </v>
   <v>       0.72222247       0.38888885       0.38096241 </v>
   <v>       0.05555577       0.72222236       0.38096241 </v>
   <v>       0.05555599       0.05555533       0.38096241 </v>
   <v>       0.05555588       0.38888885       0.38096241 </v>
   <v>       0.38888906       0.72222236       0.38096241 </v>
   <v>       0.38888928       0.05555533       0.38096241 </v>
   <v>       0.38888917       0.38888885       0.38096241 </v>
   <v>       0.83333367       0.83333303       0.45027586 </v>
   <v>       0.83333351       0.16666676       0.45027586 </v>
   <v>       0.83333340       0.50000027       0.45027586 </v>
   <v>       0.16666708       0.83333303       0.45027586 </v>
   <v>       0.16666692       0.16666676       0.45027586 </v>
   <v>       0.16666681       0.50000027       0.45027586 </v>
   <v>       0.50000038       0.83333303       0.45027586 </v>
   <v>       0.50000022       0.16666676       0.45027586 </v>
   <v>       0.50000011       0.50000027       0.45027586 </v>
   <v>       0.94444461       0.94444445       0.51911621 </v>
   <v>       0.94444483       0.27777742       0.51911621 </v>
   <v>       0.94444472       0.61111094       0.51911621 </v>
   <v>       0.27777802       0.94444445       0.51911621 </v>
   <v>       0.27777824       0.27777742       0.51911621 </v>
   <v>       0.27777813       0.61111094       0.51911621 </v>
   <v>       0.61111131       0.94444445       0.51911621 </v>
   <v>       0.61111153       0.27777742       0.51911621 </v>
   <v>       0.61111142       0.61111094       0.51911621 </v>
   <v>       0.27777785       0.44444418       0.10434517 </v>
   <v>       0.27777774       0.77777770       0.10434517 </v>
   <v>       0.27777758       0.11111143       0.10434517 </v>
   <v>       0.61111115       0.44444418       0.10434517 </v>
   <v>       0.61111104       0.77777770       0.10434517 </v>
   <v>       0.61111088       0.11111143       0.10434517 </v>
   <v>       0.94444444       0.44444418       0.10434517 </v>
   <v>       0.94444433       0.77777770       0.10434517 </v>
   <v>       0.94444417       0.11111143       0.10434517 </v>
   <v>       0.38888879       0.55555561       0.17318552 </v>
   <v>       0.38888868       0.88888912       0.17318552 </v>
   <v>       0.38888890       0.22222209       0.17318552 </v>
   <v>       0.72222208       0.55555561       0.17318552 </v>
   <v>       0.72222197       0.88888912       0.17318552 </v>
   <v>       0.72222219       0.22222209       0.17318552 </v>
   <v>       0.05555549       0.55555561       0.17318552 </v>
   <v>       0.05555538       0.88888912       0.17318552 </v>
   <v>       0.05555560       0.22222209       0.17318552 </v>
   <v>       0.49999972       0.66666703       0.24249897 </v>
   <v>       0.49999994       0.00000000       0.24249897 </v>
   <v>       0.49999983       0.33333352       0.24249897 </v>
   <v>       0.83333302       0.66666703       0.24249897 </v>
   <v>       0.83333324       0.00000000       0.24249897 </v>
   <v>       0.83333313       0.33333352       0.24249897 </v>
   <v>       0.16666643       0.66666703       0.24249897 </v>
   <v>       0.16666665       0.00000000       0.24249897 </v>
   <v>       0.16666654       0.33333352       0.24249897 </v>
   <v>       0.61111104       0.77777770       0.31173069 </v>
   <v>       0.61111088       0.11111143       0.31173069 </v>
   <v>       0.61111115       0.44444418       0.31173069 </v>
   <v>       0.94444433       0.77777770       0.31173069 </v>
   <v>       0.94444417       0.11111143       0.31173069 </v>
   <v>       0.94444444       0.44444418       0.31173069 </v>
   <v>       0.27777774       0.77777770       0.31173069 </v>
   <v>       0.27777758       0.11111143       0.31173069 </v>
   <v>       0.27777785       0.44444418       0.31173069 </v>
   <v>       0.72222197       0.88888912       0.38096241 </v>
   <v>       0.72222219       0.22222209       0.38096241 </v>
   <v>       0.72222208       0.55555561       0.38096241 </v>
   <v>       0.05555538       0.88888912       0.38096241 </v>
   <v>       0.05555560       0.22222209       0.38096241 </v>
   <v>       0.05555549       0.55555561       0.38096241 </v>
   <v>       0.38888868       0.88888912       0.38096241 </v>
   <v>       0.38888890       0.22222209       0.38096241 </v>
   <v>       0.38888879       0.55555561       0.38096241 </v>
   <v>       0.83333324       0.00000000       0.45027586 </v>
   <v>       0.83333313       0.33333352       0.45027586 </v>
   <v>       0.83333302       0.66666703       0.45027586 </v>
   <v>       0.16666665       0.00000000       0.45027586 </v>
   <v>       0.16666654       0.33333352       0.45027586 </v>
   <v>       0.16666643       0.66666703       0.45027586 </v>
   <v>       0.49999994       0.00000000       0.45027586 </v>
   <v>       0.49999983       0.33333352       0.45027586 </v>
   <v>       0.49999972       0.66666703       0.45027586 </v>
   <v>       0.94444417       0.11111143       0.51911621 </v>
   <v>       0.94444444       0.44444418       0.51911621 </v>
   <v>       0.94444433       0.77777770       0.51911621 </v>
   <v>       0.27777758       0.11111143       0.51911621 </v>
   <v>       0.27777785       0.44444418       0.51911621 </v>
   <v>       0.27777774       0.77777770       0.51911621 </v>
   <v>       0.61111088       0.11111143       0.51911621 </v>
   <v>       0.61111115       0.44444418       0.51911621 </v>
   <v>       0.61111104       0.77777770       0.51911621 </v>
   <v>       0.44444488       0.27777742       0.10434517 </v>
   <v>       0.44444477       0.61111094       0.10434517 </v>
   <v>       0.44444466       0.94444445       0.10434517 </v>
   <v>       0.77777818       0.27777742       0.10434517 </v>
   <v>       0.77777807       0.61111094       0.10434517 </v>
   <v>       0.77777796       0.94444445       0.10434517 </v>
   <v>       0.11111159       0.27777742       0.10434517 </v>
   <v>       0.11111148       0.61111094       0.10434517 </v>
   <v>       0.11111137       0.94444445       0.10434517 </v>
   <v>       0.55555582       0.38888885       0.17318552 </v>
   <v>       0.55555571       0.72222236       0.17318552 </v>
   <v>       0.55555593       0.05555533       0.17318552 </v>
   <v>       0.88888911       0.38888885       0.17318552 </v>
   <v>       0.88888900       0.72222236       0.17318552 </v>
   <v>       0.88888922       0.05555533       0.17318552 </v>
   <v>       0.22222252       0.38888885       0.17318552 </v>
   <v>       0.22222241       0.72222236       0.17318552 </v>
   <v>       0.22222264       0.05555533       0.17318552 </v>
   <v>       0.66666675       0.50000027       0.24249897 </v>
   <v>       0.66666702       0.83333303       0.24249897 </v>
   <v>       0.66666686       0.16666676       0.24249897 </v>
   <v>       0.00000016       0.50000027       0.24249897 </v>
   <v>       0.00000043       0.83333303       0.24249897 </v>
   <v>       0.00000027       0.16666676       0.24249897 </v>
   <v>       0.33333346       0.50000027       0.24249897 </v>
   <v>       0.33333373       0.83333303       0.24249897 </v>
   <v>       0.33333357       0.16666676       0.24249897 </v>
   <v>       0.77777807       0.61111094       0.31173069 </v>
   <v>       0.77777796       0.94444445       0.31173069 </v>
   <v>       0.77777818       0.27777742       0.31173069 </v>
   <v>       0.11111148       0.61111094       0.31173069 </v>
   <v>       0.11111137       0.94444445       0.31173069 </v>
   <v>       0.11111159       0.27777742       0.31173069 </v>
   <v>       0.44444477       0.61111094       0.31173069 </v>
   <v>       0.44444466       0.94444445       0.31173069 </v>
   <v>       0.44444488       0.27777742       0.31173069 </v>
   <v>       0.88888900       0.72222236       0.38096241 </v>
   <v>       0.88888922       0.05555533       0.38096241 </v>
   <v>       0.88888911       0.38888885       0.38096241 </v>
   <v>       0.22222241       0.72222236       0.38096241 </v>
   <v>       0.22222264       0.05555533       0.38096241 </v>
   <v>       0.22222252       0.38888885       0.38096241 </v>
   <v>       0.55555571       0.72222236       0.38096241 </v>
   <v>       0.55555593       0.05555533       0.38096241 </v>
   <v>       0.55555582       0.38888885       0.38096241 </v>
   <v>       0.00000043       0.83333303       0.45027586 </v>
   <v>       0.00000027       0.16666676       0.45027586 </v>
   <v>       0.00000016       0.50000027       0.45027586 </v>
   <v>       0.33333373       0.83333303       0.45027586 </v>
   <v>       0.33333357       0.16666676       0.45027586 </v>
   <v>       0.33333346       0.50000027       0.45027586 </v>
   <v>       0.66666702       0.83333303       0.45027586 </v>
   <v>       0.66666686       0.16666676       0.45027586 </v>
   <v>       0.66666675       0.50000027       0.45027586 </v>
   <v>       0.11111137       0.94444445       0.51911621 </v>
   <v>       0.11111159       0.27777742       0.51911621 </v>
   <v>       0.11111148       0.61111094       0.51911621 </v>
   <v>       0.44444466       0.94444445       0.51911621 </v>
   <v>       0.44444488       0.27777742       0.51911621 </v>
   <v>       0.44444477       0.61111094       0.51911621 </v>
   <v>       0.77777796       0.94444445       0.51911621 </v>
   <v>       0.77777818       0.27777742       0.51911621 </v>
   <v>       0.77777807       0.61111094       0.51911621 </v>
   <v>       0.55561801       0.38880804       0.62241379 </v>
   <v>       0.49996510       0.50011387       0.62241379 </v>
  </varray>
 </structure>
 <calculation>
  <scstep>
   <time name="dav">   32.80   32.81</time>
   <time name="total">   33.41   33.42</time>
   <energy>
    <i name="alphaZ">  11989.56231627 </i>
    <i name="ewald">1648746.04020234 </i>
    <i name="hartreedc">**************** </i>
    <i name="XCdc">   2946.99666760 </i>
    <i name="pawpsdc"> 240645.55203634 </i>
    <i name="pawaedc">-260205.15184403 </i>
    <i name="eentropy">     -0.17979627 </i>
    <i name="bandstr">  18960.33980388 </i>
    <i name="atom"> 272423.81458302 </i>
    <i name="e_fr_energy">  22328.67628288 </i>
    <i name="e_wo_entrp">  22328.85607915 </i>
    <i name="e_0_energy">  22328.76618101 </i>
   </energy>
  </scstep>
  <scstep>
   <time name="dav">   32.67   32.67</time>
   <time name="total">   32.68   32.68</time>
   <energy>
    <i name="e_fr_energy">     95.06464776 </i>
    <i name="e_wo_entrp">     95.27623259 </i>
    <i name="e_0_energy">     95.17044018 </i>
   </energy>
  </scstep>
  <scstep>
   <time name="dav">   35.56   35.56</time>
   <time name="total">   35.56   35.57</time>
   <energy>
    <i name="e_fr_energy">  -1334.14448223 </i>
    <i name="e_wo_entrp">  -1333.31444321 </i>
    <i name="e_0_energy">  -1333.72946272 </i>
   </energy>
  </scstep>
  <scstep>
   <time name="dav">   52.15   52.16</time>
   <time name="total">   52.16   52.17</time>
   <energy>
    <i name="e_fr_energy">  -1559.57715097 </i>
    <i name="e_wo_entrp">  -1558.39817150 </i>
    <i name="e_0_energy">  -1558.98766123 </i>
   </energy>
  </scstep>
  <scstep>
   <time name="dav">   47.10   47.10</time>
   <time name="total">   48.87   48.87</time>
   <energy>
    <i name="e_fr_energy">  -1571.19910208 </i>
    <i name="e_wo_entrp">  -1570.00096038 </i>
    <i name="e_0_energy">  -1570.60003123 </i>
   </energy>
  </scstep>
  <scstep>
   <time name="dav">   40.42   40.43</time>
   <time name="total">   42.77   42.77</time>
   <energy>
    <i name="e_fr_energy">  -1940.46280717 </i>
    <i name="e_wo_entrp">  -1940.02686360 </i>
    <i name="e_0_energy">  -1940.24483539 </i>
   </energy>
  </scstep>
  <scstep>
   <time name="dav">   35.08   35.08</time>
   <time name="total">   37.46   37.47</time>
   <energy>
    <i name="e_fr_energy">  -1749.36509227 </i>
    <i name="e_wo_entrp">  -1748.94716583 </i>
    <i name="e_0_energy">  -1749.15612905 </i>
   </energy>
  </scstep>
  <scstep>
   <time name="dav">   42.61   42.61</time>
   <time name="total">   44.97   44.98</time>
   <energy>
    <i name="e_fr_energy">  -2187.12577262 </i>
    <i name="e_wo_entrp">  -2186.73171261 </i>
    <i name="e_0_energy">  -2186.92874262 </i>
   </energy>
  </scstep>
  <scstep>
   <time name="dav">   37.62   37.63</time>
   <time name="total">   40.00   40.01</time>
   <energy>
    <i name="e_fr_energy">  -1787.42007774 </i>
    <i name="e_wo_entrp">  -1787.07512778 </i>
    <i name="e_0_energy">  -1787.24760276 </i>
   </energy>
  </scstep>
  <scstep>
   <time name="dav">   39.94   39.94</time>
   <time name="total">   42.30   42.31</time>
   <energy>
    <i name="e_fr_energy">  -1676.35034535 </i>
    <i name="e_wo_entrp">  -1675.94300593 </i>
    <i name="e_0_energy">  -1676.14667564 </i>
   </energy>
  </scstep>
  <scstep>
   <time name="dav">   36.70   36.71</time>
   <time name="total">   39.09   39.10</time>
   <energy>
    <i name="e_fr_energy">  -1515.66850303 </i>
    <i name="e_wo_entrp">  -1515.22512461 </i>
    <i name="e_0_energy">  -1515.44681382 </i>
   </energy>
  </scstep>
  <scstep>
   <time name="dav">   42.34   42.34</time>
   <time name="total">   44.74   44.75</time>
   <energy>
    <i name="e_fr_energy">  -1564.63612188 </i>
    <i name="e_wo_entrp">  -1563.69821457 </i>
    <i name="e_0_energy">  -1564.16716823 </i>
   </energy>
  </scstep>
  <scstep>
   <time name="dav">   37.39   37.39</time>
   <time name="total">   39.80   39.81</time>
   <energy>
    <i name="e_fr_energy">  -1516.65862068 </i>
    <i name="e_wo_entrp">  -1516.17112870 </i>
    <i name="e_0_energy">  -1516.41487469 </i>
   </energy>
  </scstep>
  <scstep>
   <time name="dav">   34.99   35.00</time>
   <time name="total">   37.40   37.41</time>
   <energy>
    <i name="e_fr_energy">  -1635.13325362 </i>
    <i name="e_wo_entrp">  -1634.72718905 </i>
    <i name="e_0_energy">  -1634.93022134 </i>
   </energy>
  </scstep>
  <scstep>
   <time name="dav">   35.66   35.66</time>
   <time name="total">   38.09   38.09</time>
   <energy>
    <i name="e_fr_energy">  -1501.14628464 </i>
    <i name="e_wo_entrp">  -1500.60725102 </i>
    <i name="e_0_energy">  -1500.87676783 </i>
   </energy>
  </scstep>
  <scstep>
   <time name="dav">   34.32   34.32</time>
   <time name="total">   36.75   36.75</time>
   <energy>
    <i name="e_fr_energy">  -1490.88651521 </i>
    <i name="e_wo_entrp">  -1490.28739070 </i>
    <i name="e_0_energy">  -1490.58695295 </i>
   </energy>
  </scstep>
  <scstep>
   <time name="dav">   34.76   34.77</time>
   <time name="total">   37.19   37.20</time>
   <energy>
    <i name="e_fr_energy">  -1489.28764609 </i>
    <i name="e_wo_entrp">  -1488.84681109 </i>
    <i name="e_0_energy">  -1489.06722859 </i>
   </energy>
  </scstep>
  <scstep>
   <time name="dav">   34.09   34.09</time>
   <time name="total">   36.54   36.55</time>
   <energy>
    <i name="e_fr_energy">  -1420.50297345 </i>
    <i name="e_wo_entrp">  -1420.05230722 </i>
    <i name="e_0_energy">  -1420.27764034 </i>
   </energy>
  </scstep>
  <scstep>
   <time name="dav">   35.60   35.60</time>
   <time name="total">   38.06   38.07</time>
   <energy>
    <i name="e_fr_energy">  -1400.57803269 </i>
    <i name="e_wo_entrp">  -1400.10855168 </i>
    <i name="e_0_energy">  -1400.34329218 </i>
   </energy>
  </scstep>
  <scstep>
   <time name="dav">   34.01   34.02</time>
   <time name="total">   36.50   36.51</time>
   <energy>
    <i name="e_fr_energy">  -1377.25451354 </i>
    <i name="e_wo_entrp">  -1376.66666339 </i>
    <i name="e_0_energy">  -1376.96058847 </i>
   </energy>
  </scstep>
  <scstep>
   <time name="dav">   34.31   34.32</time>
   <time name="total">   36.83   36.83</time>
   <energy>
    <i name="e_fr_energy">  -1349.77885070 </i>
    <i name="e_wo_entrp">  -1348.84524090 </i>
    <i name="e_0_energy">  -1349.31204580 </i>
   </energy>
  </scstep>
  <scstep>
   <time name="dav">   34.32   34.32</time>
   <time name="total">   36.83   36.83</time>
   <energy>
    <i name="e_fr_energy">  -1340.81633194 </i>
    <i name="e_wo_entrp">  -1339.72121329 </i>
    <i name="e_0_energy">  -1340.26877262 </i>
   </energy>
  </scstep>
  <scstep>
   <time name="dav">   36.19   36.20</time>
   <time name="total">   38.72   38.72</time>
   <energy>
    <i name="e_fr_energy">  -1338.69519629 </i>
    <i name="e_wo_entrp">  -1337.56217362 </i>
    <i name="e_0_energy">  -1338.12868496 </i>
   </energy>
  </scstep>
  <scstep>
   <time name="dav">   35.23   35.24</time>
   <time name="total">   37.76   37.77</time>
   <energy>
    <i name="e_fr_energy">  -1339.83516549 </i>
    <i name="e_wo_entrp">  -1338.68454387 </i>
    <i name="e_0_energy">  -1339.25985468 </i>
   </energy>
  </scstep>
  <scstep>
   <time name="dav">   35.04   35.04</time>
   <time name="total">   37.60   37.61</time>
   <energy>
    <i name="e_fr_energy">  -1337.30583710 </i>
    <i name="e_wo_entrp">  -1336.17230811 </i>
    <i name="e_0_energy">  -1336.73907261 </i>
   </energy>
  </scstep>
  <scstep>
   <time name="dav">   35.32   35.33</time>
   <time name="total">   37.91   37.91</time>
   <energy>
    <i name="e_fr_energy">  -1335.28400637 </i>
    <i name="e_wo_entrp">  -1334.08049839 </i>
    <i name="e_0_energy">  -1334.68225238 </i>
   </energy>
  </scstep>
  <scstep>
   <time name="dav">   35.27   35.28</time>
   <time name="total">   37.86   37.87</time>
   <energy>
    <i name="e_fr_energy">  -1333.92079282 </i>
    <i name="e_wo_entrp">  -1332.68082041 </i>
    <i name="e_0_energy">  -1333.30080661 </i>
   </energy>
  </scstep>
  <scstep>
   <time name="dav">   35.15   35.16</time>
   <time name="total">   37.75   37.76</time>
   <energy>
    <i name="e_fr_energy">  -1332.48928068 </i>
    <i name="e_wo_entrp">  -1331.27449533 </i>
    <i name="e_0_energy">  -1331.88188800 </i>
   </energy>
  </scstep>
  <scstep>
   <time name="dav">   35.58   35.59</time>
   <time name="total">   38.20   38.20</time>
   <energy>
    <i name="e_fr_energy">  -1331.44357806 </i>
    <i name="e_wo_entrp">  -1330.20494442 </i>
    <i name="e_0_energy">  -1330.82426124 </i>
   </energy>
  </scstep>
  <scstep>
   <time name="dav">   35.28   35.29</time>
   <time name="total">   37.92   37.92</time>
   <energy>
    <i name="e_fr_energy">  -1329.05465527 </i>
    <i name="e_wo_entrp">  -1327.72403167 </i>
    <i name="e_0_energy">  -1328.38934347 </i>
   </energy>
  </scstep>
  <scstep>
   <time name="dav">   35.58   35.59</time>
   <time name="total">   38.24   38.24</time>
   <energy>
    <i name="e_fr_energy">  -1327.85450049 </i>
    <i name="e_wo_entrp">  -1326.47341805 </i>
    <i name="e_0_energy">  -1327.16395927 </i>
   </energy>
  </scstep>
  <scstep>
   <time name="dav">   35.64   35.64</time>
   <time name="total">   38.31   38.32</time>
   <energy>
    <i name="e_fr_energy">  -1328.02759888 </i>
    <i name="e_wo_entrp">  -1326.67051543 </i>
[...]
       <r>    -0.4515   523.9959  2648.7368 </r>
       <r>    -0.3552   191.9103  2667.2019 </r>
       <r>    -0.2590   123.4193  2679.0770 </r>
       <r>    -0.1628   155.5164  2694.0404 </r>
       <r>    -0.0666   168.0763  2710.2123 </r>
       <r>     0.0296    95.0048  2719.3534 </r>
       <r>     0.1259    40.1147  2723.2131 </r>
       <r>     0.2221    53.7458  2728.3844 </r>
       <r>     0.3183    29.7448  2731.2464 </r>
       <r>     0.4145   148.0011  2745.4867 </r>
       <r>     0.5107    81.2815  2753.3074 </r>
       <r>     0.6069    97.9196  2762.7290 </r>
       <r>     0.7032    69.0663  2769.3744 </r>
       <r>     0.7994   107.1159  2779.6808 </r>
       <r>     0.8956   145.2524  2793.6567 </r>
       <r>     0.9918    85.0142  2801.8365 </r>
       <r>     1.0880    10.4684  2802.8438 </r>
       <r>     1.1842    63.0379  2808.9091 </r>
       <r>     1.2805   135.6671  2821.9627 </r>
       <r>     1.3767    20.1144  2823.8980 </r>
       <r>     1.4729    50.0444  2828.7132 </r>
       <r>     1.5691   114.5412  2839.7340 </r>
       <r>     1.6653    91.1885  2848.5080 </r>
       <r>     1.7615    70.1545  2855.2581 </r>
       <r>     1.8578   100.5231  2864.9301 </r>
       <r>     1.9540    82.3058  2872.8494 </r>
       <r>     2.0502    33.9464  2876.1157 </r>
       <r>     2.1464    76.1118  2883.4389 </r>
       <r>     2.2426   139.3662  2896.8484 </r>
       <r>     2.3389    86.2112  2905.1435 </r>
       <r>     2.4351    23.7806  2907.4316 </r>
       <r>     2.5313    65.6376  2913.7471 </r>
       <r>     2.6275    33.6243  2916.9823 </r>
       <r>     2.7237    12.0308  2918.1399 </r>
       <r>     2.8199    42.1321  2922.1937 </r>
       <r>     2.9162    81.7287  2930.0574 </r>
       <r>     3.0124   222.0290  2951.4205 </r>
       <r>     3.1086   125.5934  2963.5048 </r>
       <r>     3.2048    25.0974  2965.9196 </r>
       <r>     3.3010    25.3315  2968.3570 </r>
       <r>     3.3972    80.4625  2976.0989 </r>
       <r>     3.4935    76.1831  2983.4290 </r>
       <r>     3.5897    21.7204  2985.5189 </r>
       <r>     3.6859    94.2598  2994.5883 </r>
       <r>     3.7821    10.1546  2995.5654 </r>
       <r>     3.8783    20.5040  2997.5382 </r>
       <r>     3.9746    10.4937  2998.5479 </r>
       <r>     4.0708    44.6245  3002.8416 </r>
       <r>     4.1670    60.5538  3008.6679 </r>
       <r>     4.2632    39.2787  3012.4472 </r>
       <r>     4.3594    71.0712  3019.2855 </r>
       <r>     4.4556    66.2385  3025.6588 </r>
       <r>     4.5519    72.7563  3032.6592 </r>
       <r>     4.6481    54.5796  3037.9108 </r>
       <r>     4.7443     0.9274  3038.0000 </r>
       <r>     4.8405     0.0001  3038.0000 </r>
       <r>     4.9367     0.0000  3038.0000 </r>
       <r>     5.0329     0.0000  3038.0000 </r>
       <r>     5.1292     0.0000  3038.0000 </r>
       <r>     5.2254     0.0000  3038.0000 </r>
       <r>     5.3216     0.0000  3038.0000 </r>
       <r>     5.4178     0.0000  3038.0000 </r>
       <r>     5.5140     0.0000  3038.0000 </r>
       <r>     5.6102     0.0000  3038.0000 </r>
       <r>     5.7065     0.0000  3038.0000 </r>
       <r>     5.8027     0.0000  3038.0000 </r>
       <r>     5.8989     0.0000  3038.0000 </r>
      </set>
     </set>
    </array>
   </total>
  </dos>
 </calculation>
 <structure name="finalpos" >
  <crystal>
   <varray name="basis" >
    <v>       0.00000000     -15.14622176       0.00000000 </v>
    <v>       0.00000000      -7.57311088     -13.11701281 </v>
    <v>      29.00000000       0.00000000       0.00000000 </v>
   </varray>
   <i name="volume">   5761.52236213 </i>
   <varray name="rec_basis" >
    <v>       0.00000000      -0.06602307       0.03811843 </v>
    <v>       0.00000000       0.00000000      -0.07623687 </v>
    <v>       0.03448276       0.00000000       0.00000000 </v>
   </varray>
  </crystal>
  <varray name="positions" >
   <v>       0.44444450       0.44444418       0.10434517 </v>
   <v>       0.44444439       0.77777770       0.10434517 </v>
   <v>       0.44444423       0.11111143       0.10434517 </v>
   <v>       0.77777779       0.44444418       0.10434517 </v>
   <v>       0.77777768       0.77777770       0.10434517 </v>
   <v>       0.77777752       0.11111143       0.10434517 </v>
   <v>       0.11111120       0.44444418       0.10434517 </v>
   <v>       0.11111109       0.77777770       0.10434517 </v>
   <v>       0.11111093       0.11111143       0.10434517 </v>
   <v>       0.55555543       0.55555561       0.17318552 </v>
   <v>       0.55555532       0.88888912       0.17318552 </v>
   <v>       0.55555554       0.22222209       0.17318552 </v>
   <v>       0.88888873       0.55555561       0.17318552 </v>
   <v>       0.88888862       0.88888912       0.17318552 </v>
   <v>       0.88888884       0.22222209       0.17318552 </v>
   <v>       0.22222214       0.55555561       0.17318552 </v>
   <v>       0.22222203       0.88888912       0.17318552 </v>
   <v>       0.22222225       0.22222209       0.17318552 </v>
   <v>       0.66666637       0.66666703       0.24249897 </v>
   <v>       0.66666659       0.00000000       0.24249897 </v>
   <v>       0.66666648       0.33333352       0.24249897 </v>
   <v>       0.99999978       0.66666703       0.24249897 </v>
   <v>       0.00000000       0.00000000       0.24249897 </v>
   <v>       0.99999989       0.33333352       0.24249897 </v>
   <v>       0.33333307       0.66666703       0.24249897 </v>
   <v>       0.33333329       0.00000000       0.24249897 </v>
   <v>       0.33333318       0.33333352       0.24249897 </v>
   <v>       0.77777768       0.77777770       0.31173069 </v>
   <v>       0.77777752       0.11111143       0.31173069 </v>
   <v>       0.77777779       0.44444418       0.31173069 </v>
   <v>       0.11111109       0.77777770       0.31173069 </v>
   <v>       0.11111093       0.11111143       0.31173069 </v>
   <v>       0.11111120       0.44444418       0.31173069 </v>
   <v>       0.44444439       0.77777770       0.31173069 </v>
   <v>       0.44444423       0.11111143       0.31173069 </v>
   <v>       0.44444450       0.44444418       0.31173069 </v>
   <v>       0.88888862       0.88888912       0.38096241 </v>
   <v>       0.88888884       0.22222209       0.38096241 </v>
   <v>       0.88888873       0.55555561       0.38096241 </v>
   <v>       0.22222203       0.88888912       0.38096241 </v>
   <v>       0.22222225       0.22222209       0.38096241 </v>
   <v>       0.22222214       0.55555561       0.38096241 </v>
   <v>       0.55555532       0.88888912       0.38096241 </v>
   <v>       0.55555554       0.22222209       0.38096241 </v>
   <v>       0.55555543       0.55555561       0.38096241 </v>
   <v>       0.00000000       0.00000000       0.45027586 </v>
   <v>       0.99999989       0.33333352       0.45027586 </v>
   <v>       0.99999978       0.66666703       0.45027586 </v>
   <v>       0.33333329       0.00000000       0.45027586 </v>
   <v>       0.33333318       0.33333352       0.45027586 </v>
   <v>       0.33333307       0.66666703       0.45027586 </v>
   <v>       0.66666659       0.00000000       0.45027586 </v>
   <v>       0.66666648       0.33333352       0.45027586 </v>
   <v>       0.66666637       0.66666703       0.45027586 </v>
   <v>       0.11111093       0.11111143       0.51911621 </v>
   <v>       0.11111120       0.44444418       0.51911621 </v>
   <v>       0.11111109       0.77777770       0.51911621 </v>
   <v>       0.44444423       0.11111143       0.51911621 </v>
   <v>       0.44444450       0.44444418       0.51911621 </v>
   <v>       0.44444439       0.77777770       0.51911621 </v>
   <v>       0.77777752       0.11111143       0.51911621 </v>
   <v>       0.77777779       0.44444418       0.51911621 </v>
   <v>       0.77777768       0.77777770       0.51911621 </v>
   <v>       0.27777824       0.27777742       0.10434517 </v>
   <v>       0.27777813       0.61111094       0.10434517 </v>
   <v>       0.27777802       0.94444445       0.10434517 </v>
   <v>       0.61111153       0.27777742       0.10434517 </v>
   <v>       0.61111142       0.61111094       0.10434517 </v>
   <v>       0.61111131       0.94444445       0.10434517 </v>
   <v>       0.94444483       0.27777742       0.10434517 </v>
   <v>       0.94444472       0.61111094       0.10434517 </v>
   <v>       0.94444461       0.94444445       0.10434517 </v>
   <v>       0.38888917       0.38888885       0.17318552 </v>
   <v>       0.38888906       0.72222236       0.17318552 </v>
   <v>       0.38888928       0.05555533       0.17318552 </v>
   <v>       0.72222247       0.38888885       0.17318552 </v>
   <v>       0.72222236       0.72222236       0.17318552 </v>
   <v>       0.72222258       0.05555533       0.17318552 </v>
   <v>       0.05555588       0.38888885       0.17318552 </v>
   <v>       0.05555577       0.72222236       0.17318552 </v>
   <v>       0.05555599       0.05555533       0.17318552 </v>
   <v>       0.50000011       0.50000027       0.24249897 </v>
   <v>       0.50000038       0.83333303       0.24249897 </v>
   <v>       0.50000022       0.16666676       0.24249897 </v>
   <v>       0.83333340       0.50000027       0.24249897 </v>
   <v>       0.83333367       0.83333303       0.24249897 </v>
   <v>       0.83333351       0.16666676       0.24249897 </v>
   <v>       0.16666681       0.50000027       0.24249897 </v>
   <v>       0.16666708       0.83333303       0.24249897 </v>
   <v>       0.16666692       0.16666676       0.24249897 </v>
   <v>       0.61111142       0.61111094       0.31173069 </v>
   <v>       0.61111131       0.94444445       0.31173069 </v>
   <v>       0.61111153       0.27777742       0.31173069 </v>
   <v>       0.94444472       0.61111094       0.31173069 </v>
   <v>       0.94444461       0.94444445       0.31173069 </v>
   <v>       0.94444483       0.27777742       0.31173069 </v>
   <v>       0.27777813       0.61111094       0.31173069 </v>
   <v>       0.27777802       0.94444445       0.31173069 </v>
   <v>       0.27777824       0.27777742       0.31173069 </v>
   <v>       0.72222236       0.72222236       0.38096241 </v>
   <v>       0.72222258       0.05555533       0.38096241 </v>
   <v>       0.72222247       0.38888885       0.38096241 </v>
   <v>       0.05555577       0.72222236       0.38096241 </v>
   <v>       0.05555599       0.05555533       0.38096241 </v>
   <v>       0.05555588       0.38888885       0.38096241 </v>
   <v>       0.38888906       0.72222236       0.38096241 </v>
   <v>       0.38888928       0.05555533       0.38096241 </v>
   <v>       0.38888917       0.38888885       0.38096241 </v>
   <v>       0.83333367       0.83333303       0.45027586 </v>
   <v>       0.83333351       0.16666676       0.45027586 </v>
   <v>       0.83333340       0.50000027       0.45027586 </v>
   <v>       0.16666708       0.83333303       0.45027586 </v>
   <v>       0.16666692       0.16666676       0.45027586 </v>
   <v>       0.16666681       0.50000027       0.45027586 </v>
   <v>       0.50000038       0.83333303       0.45027586 </v>
   <v>       0.50000022       0.16666676       0.45027586 </v>
   <v>       0.50000011       0.50000027       0.45027586 </v>
   <v>       0.94444461       0.94444445       0.51911621 </v>
   <v>       0.94444483       0.27777742       0.51911621 </v>
   <v>       0.94444472       0.61111094       0.51911621 </v>
   <v>       0.27777802       0.94444445       0.51911621 </v>
   <v>       0.27777824       0.27777742       0.51911621 </v>
   <v>       0.27777813       0.61111094       0.51911621 </v>
   <v>       0.61111131       0.94444445       0.51911621 </v>
   <v>       0.61111153       0.27777742       0.51911621 </v>
   <v>       0.61111142       0.61111094       0.51911621 </v>
   <v>       0.27777785       0.44444418       0.10434517 </v>
   <v>       0.27777774       0.77777770       0.10434517 </v>
   <v>       0.27777758       0.11111143       0.10434517 </v>
   <v>       0.61111115       0.44444418       0.10434517 </v>
   <v>       0.61111104       0.77777770       0.10434517 </v>
   <v>       0.61111088       0.11111143       0.10434517 </v>
   <v>       0.94444444       0.44444418       0.10434517 </v>
   <v>       0.94444433       0.77777770       0.10434517 </v>
   <v>       0.94444417       0.11111143       0.10434517 </v>
   <v>       0.38888879       0.55555561       0.17318552 </v>
   <v>       0.38888868       0.88888912       0.17318552 </v>
   <v>       0.38888890       0.22222209       0.17318552 </v>
   <v>       0.72222208       0.55555561       0.17318552 </v>
   <v>       0.72222197       0.88888912       0.17318552 </v>
   <v>       0.72222219       0.22222209       0.17318552 </v>
   <v>       0.05555549       0.55555561       0.17318552 </v>
   <v>       0.05555538       0.88888912       0.17318552 </v>
   <v>       0.05555560       0.22222209       0.17318552 </v>
   <v>       0.49999972       0.66666703       0.24249897 </v>
   <v>       0.49999994       0.00000000       0.24249897 </v>
   <v>       0.49999983       0.33333352       0.24249897 </v>
   <v>       0.83333302       0.66666703       0.24249897 </v>
   <v>       0.83333324       0.00000000       0.24249897 </v>
   <v>       0.83333313       0.33333352       0.24249897 </v>
   <v>       0.16666643       0.66666703       0.24249897 </v>
   <v>       0.16666665       0.00000000       0.24249897 </v>
   <v>       0.16666654       0.33333352       0.24249897 </v>
   <v>       0.61111104       0.77777770       0.31173069 </v>
   <v>       0.61111088       0.11111143       0.31173069 </v>
   <v>       0.61111115       0.44444418       0.31173069 </v>
   <v>       0.94444433       0.77777770       0.31173069 </v>
   <v>       0.94444417       0.11111143       0.31173069 </v>
   <v>       0.94444444       0.44444418       0.31173069 </v>
   <v>       0.27777774       0.77777770       0.31173069 </v>
   <v>       0.27777758       0.11111143       0.31173069 </v>
   <v>       0.27777785       0.44444418       0.31173069 </v>
   <v>       0.72222197       0.88888912       0.38096241 </v>
   <v>       0.72222219       0.22222209       0.38096241 </v>
   <v>       0.72222208       0.55555561       0.38096241 </v>
   <v>       0.05555538       0.88888912       0.38096241 </v>
   <v>       0.05555560       0.22222209       0.38096241 </v>
   <v>       0.05555549       0.55555561       0.38096241 </v>
   <v>       0.38888868       0.88888912       0.38096241 </v>
   <v>       0.38888890       0.22222209       0.38096241 </v>
   <v>       0.38888879       0.55555561       0.38096241 </v>
   <v>       0.83333324       0.00000000       0.45027586 </v>
   <v>       0.83333313       0.33333352       0.45027586 </v>
   <v>       0.83333302       0.66666703       0.45027586 </v>
   <v>       0.16666665       0.00000000       0.45027586 </v>
   <v>       0.16666654       0.33333352       0.45027586 </v>
   <v>       0.16666643       0.66666703       0.45027586 </v>
   <v>       0.49999994       0.00000000       0.45027586 </v>
   <v>       0.49999983       0.33333352       0.45027586 </v>
   <v>       0.49999972       0.66666703       0.45027586 </v>
   <v>       0.94444417       0.11111143       0.51911621 </v>
   <v>       0.94444444       0.44444418       0.51911621 </v>
   <v>       0.94444433       0.77777770       0.51911621 </v>
   <v>       0.27777758       0.11111143       0.51911621 </v>
   <v>       0.27777785       0.44444418       0.51911621 </v>
   <v>       0.27777774       0.77777770       0.51911621 </v>
   <v>       0.61111088       0.11111143       0.51911621 </v>
   <v>       0.61111115       0.44444418       0.51911621 </v>
   <v>       0.61111104       0.77777770       0.51911621 </v>
   <v>       0.44444488       0.27777742       0.10434517 </v>
   <v>       0.44444477       0.61111094       0.10434517 </v>
   <v>       0.44444466       0.94444445       0.10434517 </v>
   <v>       0.77777818       0.27777742       0.10434517 </v>
   <v>       0.77777807       0.61111094       0.10434517 </v>
   <v>       0.77777796       0.94444445       0.10434517 </v>
   <v>       0.11111159       0.27777742       0.10434517 </v>
   <v>       0.11111148       0.61111094       0.10434517 </v>
   <v>       0.11111137       0.94444445       0.10434517 </v>
   <v>       0.55555582       0.38888885       0.17318552 </v>
   <v>       0.55555571       0.72222236       0.17318552 </v>
   <v>       0.55555593       0.05555533       0.17318552 </v>
   <v>       0.88888911       0.38888885       0.17318552 </v>
   <v>       0.88888900       0.72222236       0.17318552 </v>
   <v>       0.88888922       0.05555533       0.17318552 </v>
   <v>       0.22222252       0.38888885       0.17318552 </v>
   <v>       0.22222241       0.72222236       0.17318552 </v>
   <v>       0.22222264       0.05555533       0.17318552 </v>
   <v>       0.66666675       0.50000027       0.24249897 </v>
   <v>       0.66666702       0.83333303       0.24249897 </v>
   <v>       0.66666686       0.16666676       0.24249897 </v>
   <v>       0.00000016       0.50000027       0.24249897 </v>
   <v>       0.00000043       0.83333303       0.24249897 </v>
   <v>       0.00000027       0.16666676       0.24249897 </v>
   <v>       0.33333346       0.50000027       0.24249897 </v>
   <v>       0.33333373       0.83333303       0.24249897 </v>
   <v>       0.33333357       0.16666676       0.24249897 </v>
   <v>       0.77777807       0.61111094       0.31173069 </v>
   <v>       0.77777796       0.94444445       0.31173069 </v>
   <v>       0.77777818       0.27777742       0.31173069 </v>
   <v>       0.11111148       0.61111094       0.31173069 </v>
   <v>       0.11111137       0.94444445       0.31173069 </v>
   <v>       0.11111159       0.27777742       0.31173069 </v>
   <v>       0.44444477       0.61111094       0.31173069 </v>
   <v>       0.44444466       0.94444445       0.31173069 </v>
   <v>       0.44444488       0.27777742       0.31173069 </v>
   <v>       0.88888900       0.72222236       0.38096241 </v>
   <v>       0.88888922       0.05555533       0.38096241 </v>
   <v>       0.88888911       0.38888885       0.38096241 </v>
   <v>       0.22222241       0.72222236       0.38096241 </v>
   <v>       0.22222264       0.05555533       0.38096241 </v>
   <v>       0.22222252       0.38888885       0.38096241 </v>
   <v>       0.55555571       0.72222236       0.38096241 </v>
   <v>       0.55555593       0.05555533       0.38096241 </v>
   <v>       0.55555582       0.38888885       0.38096241 </v>
   <v>       0.00000043       0.83333303       0.45027586 </v>
   <v>       0.00000027       0.16666676       0.45027586 </v>
   <v>       0.00000016       0.50000027       0.45027586 </v>
   <v>       0.33333373       0.83333303       0.45027586 </v>
   <v>       0.33333357       0.16666676       0.45027586 </v>
   <v>       0.33333346       0.50000027       0.45027586 </v>
   <v>       0.66666702       0.83333303       0.45027586 </v>
   <v>       0.66666686       0.16666676       0.45027586 </v>
   <v>       0.66666675       0.50000027       0.45027586 </v>
   <v>       0.11111137       0.94444445       0.51911621 </v>
   <v>       0.11111159       0.27777742       0.51911621 </v>
   <v>       0.11111148       0.61111094       0.51911621 </v>
   <v>       0.44444466       0.94444445       0.51911621 </v>
   <v>       0.44444488       0.27777742       0.51911621 </v>
   <v>       0.44444477       0.61111094       0.51911621 </v>
   <v>       0.77777796       0.94444445       0.51911621 </v>
   <v>       0.77777818       0.27777742       0.51911621 </v>
   <v>       0.77777807       0.61111094       0.51911621 </v>
   <v>       0.55561801       0.38880804       0.62241379 </v>
   <v>       0.49996510       0.50011387       0.62241379 </v>
  </varray>
 </structure>
</modeling>
