 526 526   0   0
  0.1235611E+02  0.1441508E-08  0.1441508E-08  0.3611625E-08  0.2000000E-15
   1.0000000000000000E-004
  CAR 
 NiAl                                    
     12.47041689    -33.59710498  301      1.99740457      1.00000000
    -33.597  0.0000E+00  0.0000E+00
    -33.444  0.0000E+00  0.0000E+00
    -33.290  0.0000E+00  0.0000E+00
    -33.136  0.0000E+00  0.0000E+00
    -32.983  0.0000E+00  0.0000E+00
    -32.829  0.0000E+00  0.0000E+00
    -32.676  0.0000E+00  0.0000E+00
    -32.522  0.0000E+00  0.0000E+00
    -32.369  0.0000E+00  0.0000E+00
    -32.215  0.0000E+00  0.0000E+00
    -32.062  0.0000E+00  0.0000E+00
    -31.908  0.0000E+00  0.0000E+00
    -31.754  0.4820E-13  0.7402E-14
    -31.601  0.2325E-03  0.3570E-04
    -31.447  0.8288E-01  0.1276E-01
    -31.294  0.3704E+00  0.6964E-01
    -31.140  0.1164E+00  0.8750E-01
    -30.987  0.2233E+00  0.1218E+00
    -30.833  0.5062E+00  0.1995E+00
    -30.679  0.2160E+00  0.2327E+00
    -30.526  0.3143E-01  0.2375E+00
    -30.372  0.3275E+00  0.2878E+00
    -30.219  0.6283E+00  0.3843E+00
    -30.065  0.2124E+00  0.4169E+00
    -29.912  0.1516E+00  0.4402E+00
    -29.758  0.1462E+00  0.4626E+00
    -29.605  0.2335E+00  0.4985E+00
    -29.451  0.3436E+00  0.5513E+00
    -29.297  0.6123E+00  0.6453E+00
    -29.144  0.2576E+00  0.6848E+00
    -28.990  0.1539E+00  0.7085E+00
    -28.837  0.1889E+00  0.7375E+00
    -28.683  0.8754E-01  0.7509E+00
    -28.530  0.3036E+00  0.7976E+00
    -28.376  0.5463E+00  0.8815E+00
    -28.223  0.5620E+00  0.9677E+00
    -28.069  0.3727E+00  0.1025E+01
    -27.915  0.1335E+00  0.1045E+01
    -27.762  0.1283E+00  0.1065E+01
    -27.608  0.2265E+00  0.1100E+01
    -27.455  0.4203E+00  0.1165E+01
    -27.301  0.4108E+00  0.1228E+01
    -27.148  0.3809E+00  0.1286E+01
    -26.994  0.2823E+00  0.1329E+01
    -26.841  0.6842E+00  0.1434E+01
    -26.687  0.2266E+00  0.1469E+01
    -26.533  0.2487E+00  0.1507E+01
    -26.380  0.2384E+00  0.1544E+01
    -26.226  0.1177E+01  0.1725E+01
    -26.073  0.9990E+00  0.1878E+01
    -25.919  0.7606E+00  0.1995E+01
    -25.766  0.9807E+00  0.2146E+01
    -25.612  0.9577E+00  0.2293E+01
    -25.459  0.5214E+00  0.2373E+01
    -25.305  0.1101E+01  0.2542E+01
    -25.151  0.1706E+01  0.2804E+01
    -24.998  0.9928E+00  0.2956E+01
    -24.844  0.1391E+01  0.3170E+01
    -24.691  0.1754E+01  0.3439E+01
    -24.537  0.1986E+01  0.3744E+01
    -24.384  0.1652E+01  0.3998E+01
    -24.230  0.1316E+01  0.4200E+01
    -24.076  0.1463E+01  0.4425E+01
    -23.923  0.1380E+01  0.4637E+01
    -23.769  0.7342E+00  0.4749E+01
    -23.616  0.5259E+00  0.4830E+01
    -23.462  0.9273E+00  0.4973E+01
    -23.309  0.8132E+00  0.5097E+01
    -23.155  0.5653E+00  0.5184E+01
    -23.002  0.1026E+00  0.5200E+01
    -22.848  0.5480E-07  0.5200E+01
    -22.694  0.2262E-01  0.5203E+01
    -22.541  0.9407E+00  0.5348E+01
    -22.387  0.1356E-01  0.5350E+01
    -22.234  0.6616E-10  0.5350E+01
    -22.080  0.0000E+00  0.5350E+01
    -21.927  0.0000E+00  0.5350E+01
    -21.773  0.3834E-11  0.5350E+01
    -21.620  0.2951E-02  0.5350E+01
    -21.466  0.3145E+00  0.5399E+01
    -21.312  0.8158E-02  0.5400E+01
    -21.159  0.4249E+00  0.5465E+01
    -21.005  0.5474E+00  0.5549E+01
    -20.852  0.4495E-02  0.5550E+01
    -20.698  0.1124E-10  0.5550E+01
    -20.545  0.0000E+00  0.5550E+01
    -20.391  0.4944E-08  0.5550E+01
    -20.238  0.4010E-01  0.5556E+01
    -20.084  0.1007E+01  0.5711E+01
    -19.930  0.6242E+00  0.5807E+01
    -19.777  0.4937E+00  0.5882E+01
    -19.623  0.6551E+00  0.5983E+01
    -19.470  0.8825E+00  0.6119E+01
    -19.316  0.9050E+00  0.6258E+01
    -19.163  0.9183E+00  0.6399E+01
    -19.009  0.7872E+00  0.6519E+01
    -18.855  0.2393E+00  0.6556E+01
    -18.702  0.6550E+00  0.6657E+01
    -18.548  0.9224E+00  0.6798E+01
    -18.395  0.6995E+00  0.6906E+01
    -18.241  0.4575E+00  0.6976E+01
    -18.088  0.4261E+00  0.7042E+01
    -17.934  0.5137E+00  0.7120E+01
    -17.781  0.5289E+00  0.7202E+01
    -17.627  0.1243E+01  0.7392E+01
    -17.473  0.1209E+01  0.7578E+01
    -17.320  0.1023E+01  0.7735E+01
    -17.166  0.8149E+00  0.7860E+01
    -17.013  0.1626E+01  0.8110E+01
    -16.859  0.1903E+01  0.8402E+01
    -16.706  0.2480E+01  0.8783E+01
    -16.552  0.2935E+01  0.9234E+01
    -16.399  0.2570E+01  0.9628E+01
    -16.245  0.2522E+01  0.1002E+02
    -16.091  0.2437E+01  0.1039E+02
    -15.938  0.2230E+01  0.1073E+02
    -15.784  0.3317E+01  0.1124E+02
    -15.631  0.4289E+01  0.1190E+02
    -15.477  0.5199E+01  0.1270E+02
    -15.324  0.5973E+01  0.1362E+02
    -15.170  0.6058E+01  0.1455E+02
    -15.017  0.6232E+01  0.1550E+02
    -14.863  0.6813E+01  0.1655E+02
    -14.709  0.4712E+01  0.1727E+02
    -14.556  0.9013E+00  0.1741E+02
    -14.402  0.8623E+00  0.1754E+02
    -14.249  0.8253E+00  0.1767E+02
    -14.095  0.9284E+00  0.1781E+02
    -13.942  0.1391E+01  0.1803E+02
    -13.788  0.1427E+01  0.1825E+02
    -13.635  0.1209E+01  0.1843E+02
    -13.481  0.1130E+01  0.1860E+02
    -13.327  0.1250E+01  0.1880E+02
    -13.174  0.1347E+01  0.1900E+02
    -13.020  0.1588E+01  0.1925E+02
    -12.867  0.1311E+01  0.1945E+02
    -12.713  0.1402E+01  0.1966E+02
    -12.560  0.1359E+01  0.1987E+02
    -12.406  0.1736E+01  0.2014E+02
    -12.252  0.1652E+01  0.2039E+02
    -12.099  0.1501E+01  0.2062E+02
    -11.945  0.1701E+01  0.2088E+02
    -11.792  0.1546E+01  0.2112E+02
    -11.638  0.1224E+01  0.2131E+02
    -11.485  0.6238E+00  0.2141E+02
    -11.331  0.1444E+01  0.2163E+02
    -11.178  0.9660E+00  0.2178E+02
    -11.024  0.1296E+01  0.2197E+02
    -10.870  0.9514E+00  0.2212E+02
    -10.717  0.4402E+00  0.2219E+02
    -10.563  0.7579E+00  0.2230E+02
    -10.410  0.1232E+01  0.2249E+02
    -10.256  0.1053E+01  0.2266E+02
    -10.103  0.1261E+01  0.2285E+02
     -9.949  0.1080E+01  0.2302E+02
     -9.796  0.1588E+01  0.2326E+02
     -9.642  0.9859E+00  0.2341E+02
     -9.488  0.1549E+01  0.2365E+02
     -9.335  0.1876E+01  0.2394E+02
     -9.181  0.1052E+01  0.2410E+02
     -9.028  0.2519E+00  0.2414E+02
     -8.874  0.8784E+00  0.2427E+02
     -8.721  0.7217E+00  0.2438E+02
     -8.567  0.9496E+00  0.2453E+02
     -8.414  0.1001E+01  0.2468E+02
     -8.260  0.6680E+00  0.2478E+02
     -8.106  0.8350E+00  0.2491E+02
     -7.953  0.1189E+01  0.2510E+02
     -7.799  0.1482E+01  0.2532E+02
     -7.646  0.1657E+01  0.2558E+02
     -7.492  0.1831E+01  0.2586E+02
     -7.339  0.1936E+01  0.2616E+02
     -7.185  0.2075E+01  0.2647E+02
     -7.032  0.1533E+01  0.2671E+02
     -6.878  0.1101E+01  0.2688E+02
     -6.724  0.1341E+01  0.2708E+02
     -6.571  0.1390E+01  0.2730E+02
     -6.417  0.1539E+01  0.2753E+02
     -6.264  0.1966E+01  0.2784E+02
     -6.110  0.2048E+01  0.2815E+02
     -5.957  0.2162E+01  0.2848E+02
     -5.803  0.2570E+01  0.2888E+02
     -5.649  0.2863E+01  0.2932E+02
     -5.496  0.3223E+01  0.2981E+02
     -5.342  0.3603E+01  0.3037E+02
     -5.189  0.3372E+01  0.3088E+02
     -5.035  0.3351E+01  0.3140E+02
     -4.882  0.3890E+01  0.3199E+02
     -4.728  0.4834E+01  0.3274E+02
     -4.575  0.4668E+01  0.3345E+02
     -4.421  0.5611E+01  0.3432E+02
     -4.267  0.6397E+01  0.3530E+02
     -4.114  0.5559E+01  0.3615E+02
     -3.960  0.5106E+01  0.3694E+02
     -3.807  0.4979E+01  0.3770E+02
     -3.653  0.4740E+01  0.3843E+02
     -3.500  0.4828E+01  0.3917E+02
     -3.346  0.4422E+01  0.3985E+02
     -3.193  0.3783E+01  0.4043E+02
     -3.039  0.3952E+01  0.4104E+02
     -2.885  0.4392E+01  0.4171E+02
     -2.732  0.4846E+01  0.4245E+02
     -2.578  0.5150E+01  0.4325E+02
     -2.425  0.5111E+01  0.4403E+02
     -2.271  0.4752E+01  0.4476E+02
     -2.118  0.4556E+01  0.4546E+02
     -1.964  0.4247E+01  0.4611E+02
     -1.811  0.5147E+01  0.4690E+02
     -1.657  0.5211E+01  0.4770E+02
     -1.503  0.5093E+01  0.4848E+02
     -1.350  0.4557E+01  0.4918E+02
     -1.196  0.5411E+01  0.5002E+02
     -1.043  0.6167E+01  0.5096E+02
     -0.889  0.6881E+01  0.5202E+02
     -0.736  0.6445E+01  0.5301E+02
     -0.582  0.7223E+01  0.5412E+02
     -0.428  0.6590E+01  0.5513E+02
     -0.275  0.6994E+01  0.5620E+02
     -0.121  0.7497E+01  0.5736E+02
      0.032  0.7926E+01  0.5857E+02
      0.186  0.8413E+01  0.5986E+02
      0.339  0.8187E+01  0.6112E+02
      0.493  0.7272E+01  0.6224E+02
      0.646  0.7117E+01  0.6333E+02
      0.800  0.7088E+01  0.6442E+02
      0.954  0.7221E+01  0.6553E+02
      1.107  0.6604E+01  0.6654E+02
      1.261  0.7234E+01  0.6765E+02
      1.414  0.6585E+01  0.6866E+02
      1.568  0.4305E+01  0.6933E+02
      1.721  0.4217E+01  0.6997E+02
      1.875  0.2765E+01  0.7040E+02
      2.028  0.3252E+01  0.7090E+02
      2.182  0.2908E+01  0.7134E+02
      2.336  0.2043E+01  0.7166E+02
      2.489  0.1043E+01  0.7182E+02
      2.643  0.1203E+01  0.7200E+02
      2.796  0.1077E+01  0.7217E+02
      2.950  0.1078E+01  0.7233E+02
      3.103  0.1635E+01  0.7258E+02
      3.257  0.2170E+01  0.7292E+02
      3.410  0.1132E+01  0.7309E+02
      3.564  0.7619E+00  0.7321E+02
      3.718  0.1940E+01  0.7351E+02
      3.871  0.1457E+01  0.7373E+02
      4.025  0.1704E+01  0.7399E+02
      4.178  0.1290E+01  0.7419E+02
      4.332  0.1398E+01  0.7440E+02
      4.485  0.1853E+01  0.7469E+02
      4.639  0.1313E+01  0.7489E+02
      4.792  0.1751E+01  0.7516E+02
      4.946  0.1921E+01  0.7545E+02
      5.100  0.2115E+01  0.7578E+02
      5.253  0.7933E+00  0.7590E+02
      5.407  0.1837E+01  0.7618E+02
      5.560  0.1040E+01  0.7634E+02
      5.714  0.1517E+01  0.7658E+02
      5.867  0.5538E+00  0.7666E+02
      6.021  0.1507E+01  0.7689E+02
      6.175  0.1361E+01  0.7710E+02
      6.328  0.1976E+01  0.7740E+02
      6.482  0.1658E+01  0.7766E+02
      6.635  0.1259E+01  0.7785E+02
      6.789  0.9558E+00  0.7800E+02
      6.942  0.1434E+01  0.7822E+02
      7.096  0.1453E+01  0.7844E+02
      7.249  0.9732E+00  0.7859E+02
      7.403  0.1457E+01  0.7882E+02
      7.557  0.1222E+01  0.7900E+02
      7.710  0.1317E+01  0.7921E+02
      7.864  0.1716E+01  0.7947E+02
      8.017  0.1399E+01  0.7968E+02
      8.171  0.1544E+01  0.7992E+02
      8.324  0.1463E+01  0.8015E+02
      8.478  0.1832E+01  0.8043E+02
      8.631  0.1268E+01  0.8062E+02
      8.785  0.2040E+01  0.8093E+02
      8.939  0.2826E+01  0.8137E+02
      9.092  0.2874E+01  0.8181E+02
      9.246  0.2335E+01  0.8217E+02
      9.399  0.2850E+01  0.8261E+02
      9.553  0.2580E+01  0.8300E+02
      9.706  0.2484E+01  0.8338E+02
      9.860  0.2849E+01  0.8382E+02
     10.013  0.2682E+01  0.8423E+02
     10.167  0.2987E+01  0.8469E+02
     10.321  0.1201E+01  0.8488E+02
     10.474  0.4780E+00  0.8495E+02
     10.628  0.7165E-03  0.8495E+02
     10.781  0.0000E+00  0.8495E+02
     10.935  0.0000E+00  0.8495E+02
     11.088  0.0000E+00  0.8495E+02
     11.242  0.0000E+00  0.8495E+02
     11.396  0.0000E+00  0.8495E+02
     11.549  0.0000E+00  0.8495E+02
     11.703  0.0000E+00  0.8495E+02
     11.856  0.0000E+00  0.8495E+02
     12.010  0.0000E+00  0.8495E+02
     12.163  0.0000E+00  0.8495E+02
     12.317  0.0000E+00  0.8495E+02
     12.470  0.0000E+00  0.8495E+02
