       N       E                     dE             d eps       ncg     rms          rms(c)
DAV:   1     0.223306490983E+05    0.22331E+05   -0.98494E+05 12200   0.134E+03
DAV:   2     0.100923117278E+03   -0.22230E+05   -0.21244E+05 12152   0.469E+02
DAV:   3    -0.133725300600E+04   -0.14382E+04   -0.12103E+04 13672   0.131E+02
DAV:   4    -0.155548885591E+04   -0.21824E+03   -0.18630E+03 20920   0.488E+01
DAV:   5    -0.156736855853E+04   -0.11880E+02   -0.94007E+01 18528   0.116E+01    0.150E+02
DAV:   6    -0.194415515159E+04   -0.37679E+03   -0.28216E+03 15760   0.166E+02    0.290E+02
DAV:   7    -0.176891964461E+04    0.17524E+03   -0.10791E+03 13480   0.143E+02    0.234E+02
DAV:   8    -0.193963070386E+04   -0.17071E+03   -0.69622E+02 16600   0.121E+02    0.293E+02
DAV:   9    -0.203367150705E+04   -0.94041E+02   -0.24221E+02 14616   0.109E+02    0.297E+02
DAV:  10    -0.167491784307E+04    0.35875E+03   -0.33706E+02 17696   0.773E+01    0.209E+02
DAV:  11    -0.157032276301E+04    0.10460E+03   -0.31013E+02 14912   0.750E+01    0.175E+02
DAV:  12    -0.169215075715E+04   -0.12183E+03   -0.45611E+02 16288   0.111E+02    0.229E+02
DAV:  13    -0.153428260007E+04    0.15787E+03   -0.29198E+02 14584   0.750E+01    0.177E+02
DAV:  14    -0.143367551674E+04    0.10061E+03   -0.17756E+02 13312   0.784E+01    0.136E+02
DAV:  15    -0.153365555716E+04   -0.99980E+02   -0.11831E+02 15544   0.694E+01    0.190E+02
DAV:  16    -0.151959114787E+04    0.14064E+02   -0.96186E+01 14176   0.452E+01    0.195E+02
DAV:  17    -0.140865766985E+04    0.11093E+03   -0.55384E+01 12672   0.342E+01    0.145E+02
DAV:  18    -0.137600403762E+04    0.32654E+02   -0.33750E+01 13072   0.288E+01    0.115E+02
DAV:  19    -0.135060771163E+04    0.25396E+02   -0.19483E+01 12976   0.236E+01    0.787E+01
DAV:  20    -0.134874785262E+04    0.18599E+01   -0.13949E+01 13472   0.182E+01    0.786E+01
DAV:  21    -0.134979910143E+04   -0.10512E+01   -0.11007E+01 13184   0.201E+01    0.770E+01
DAV:  22    -0.134893622533E+04    0.86288E+00   -0.11464E+01 13168   0.223E+01    0.835E+01
DAV:  23    -0.134311908653E+04    0.58171E+01   -0.92391E+00 13272   0.196E+01    0.799E+01
DAV:  24    -0.133958693505E+04    0.35322E+01   -0.73424E+00 13320   0.159E+01    0.698E+01
DAV:  25    -0.133480961763E+04    0.47773E+01   -0.51428E+00 13328   0.112E+01    0.564E+01
DAV:  26    -0.133305588937E+04    0.17537E+01   -0.33961E+00 13248   0.887E+00    0.517E+01
DAV:  27    -0.133182001510E+04    0.12359E+01   -0.25669E+00 13272   0.641E+00    0.476E+01
DAV:  28    -0.132955060386E+04    0.22694E+01   -0.14688E+00 13440   0.576E+00    0.408E+01
DAV:  29    -0.132824813941E+04    0.13025E+01   -0.18434E+00 13464   0.786E+00    0.402E+01
DAV:  30    -0.132775457358E+04    0.49357E+00   -0.20808E+00 13408   0.907E+00    0.387E+01
DAV:  31    -0.132791315196E+04   -0.15858E+00   -0.22492E+00 13496   0.914E+00    0.396E+01
DAV:  32    -0.132747953728E+04    0.43361E+00   -0.19797E+00 13408   0.888E+00    0.401E+01
DAV:  33    -0.132663954539E+04    0.83999E+00   -0.17700E+00 13440   0.772E+00    0.350E+01
DAV:  34    -0.132593632937E+04    0.70322E+00   -0.13781E+00 13416   0.685E+00    0.269E+01
DAV:  35    -0.132603777036E+04   -0.10144E+00   -0.10736E+00 13408   0.633E+00    0.288E+01
DAV:  36    -0.132568003779E+04    0.35773E+00   -0.10907E+00 13440   0.588E+00    0.285E+01
DAV:  37    -0.132525475645E+04    0.42528E+00   -0.78769E-01 13424   0.542E+00    0.282E+01
DAV:  38    -0.132497257633E+04    0.28218E+00   -0.68830E-01 13408   0.467E+00    0.276E+01
DAV:  39    -0.132460319714E+04    0.36938E+00   -0.62127E-01 13416   0.432E+00    0.220E+01
DAV:  40    -0.132430493912E+04    0.29826E+00   -0.58953E-01 13320   0.441E+00    0.161E+01
DAV:  41    -0.132415906956E+04    0.14587E+00   -0.41071E-01 13328   0.349E+00    0.139E+01
DAV:  42    -0.132414272980E+04    0.16340E-01   -0.33859E-01 13360   0.305E+00    0.152E+01
DAV:  43    -0.132407905472E+04    0.63675E-01   -0.31312E-01 13400   0.289E+00    0.152E+01
DAV:  44    -0.132399636214E+04    0.82693E-01   -0.21877E-01 13360   0.249E+00    0.136E+01
DAV:  45    -0.132388205810E+04    0.11430E+00   -0.19563E-01 13384   0.179E+00    0.115E+01
DAV:  46    -0.132383173871E+04    0.50319E-01   -0.11706E-01 13360   0.129E+00    0.796E+00
DAV:  47    -0.132388603557E+04   -0.54297E-01   -0.13119E-01 13392   0.150E+00    0.945E+00
DAV:  48    -0.132384383132E+04    0.42204E-01   -0.67451E-02 13392   0.126E+00    0.103E+01
DAV:  49    -0.132376291231E+04    0.80919E-01   -0.30304E-02 13392   0.938E-01    0.968E+00
DAV:  50    -0.132372027729E+04    0.42635E-01   -0.34648E-02 13496   0.825E-01    0.650E+00
DAV:  51    -0.132379627712E+04   -0.76000E-01   -0.10300E-01 18888   0.136E+00    0.763E+00
DAV:  52    -0.132376515569E+04    0.31121E-01   -0.26521E-02 13776   0.804E-01    0.524E+00
DAV:  53    -0.132382419857E+04   -0.59043E-01   -0.82669E-02 13512   0.966E-01    0.929E+00
DAV:  54    -0.132373678014E+04    0.87418E-01   -0.41329E-02 13432   0.976E-01    0.774E+00
DAV:  55    -0.132375493809E+04   -0.18158E-01   -0.32840E-02 13584   0.959E-01    0.889E+00
DAV:  56    -0.132375727318E+04   -0.23351E-02   -0.39279E-02 13616   0.119E+00    0.814E+00
DAV:  57    -0.132377007401E+04   -0.12801E-01   -0.30300E-02 13552   0.999E-01    0.665E+00
DAV:  58    -0.132378984329E+04   -0.19769E-01   -0.19330E-02 13536   0.785E-01    0.561E+00
DAV:  59    -0.132378557668E+04    0.42666E-02   -0.24330E-02 13560   0.914E-01    0.595E+00
DAV:  60    -0.132375275494E+04    0.32822E-01   -0.21950E-02 13472   0.923E-01    0.692E+00
DAV:  61    -0.132395001979E+04   -0.19726E+00   -0.14058E-01 18736   0.191E+00    0.101E+01
DAV:  62    -0.132378582169E+04    0.16420E+00   -0.84694E-02 14596   0.167E+00    0.298E+00
DAV:  63    -0.132376864092E+04    0.17181E-01   -0.14522E-02 13716   0.659E-01    0.222E+00
DAV:  64    -0.132377995842E+04   -0.11317E-01   -0.12597E-02 13696   0.571E-01    0.221E+00
DAV:  65    -0.132377423429E+04    0.57241E-02   -0.90002E-03 13296   0.517E-01    0.155E+00
DAV:  66    -0.132379384584E+04   -0.19612E-01   -0.21748E-02 18280   0.724E-01    0.329E+00
DAV:  67    -0.132377193386E+04    0.21912E-01   -0.12726E-02 15104   0.684E-01    0.171E+00
DAV:  68    -0.132377025301E+04    0.16808E-02   -0.35766E-03 13648   0.291E-01    0.793E-01
DAV:  69    -0.132377421601E+04   -0.39630E-02   -0.20514E-03 14120   0.210E-01    0.725E-01
DAV:  70    -0.132377571309E+04   -0.14971E-02   -0.17309E-03 13472   0.221E-01    0.774E-01
DAV:  71    -0.132378287279E+04   -0.71597E-02   -0.66912E-03 16792   0.433E-01    0.176E+00
DAV:  72    -0.132377463550E+04    0.82373E-02   -0.50819E-03 15160   0.383E-01    0.628E-01
DAV:  73    -0.132377613995E+04   -0.15044E-02   -0.10553E-03 15184   0.150E-01    0.577E-01
DAV:  74    -0.132377713423E+04   -0.99428E-03   -0.85452E-04 13720   0.137E-01    0.830E-01
DAV:  75    -0.132377604433E+04    0.10899E-02   -0.52148E-04 13600   0.121E-01    0.761E-01
DAV:  76    -0.132377652349E+04   -0.47916E-03   -0.90205E-04 14432   0.150E-01    0.632E-01
DAV:  77    -0.132377758771E+04   -0.10642E-02   -0.54644E-04 13712   0.139E-01    0.351E-01
DAV:  78    -0.132377811412E+04   -0.52641E-03   -0.17808E-04 14664   0.682E-02    0.294E-01
DAV:  79    -0.132377842447E+04   -0.31035E-03   -0.10039E-04 13880   0.549E-02    0.292E-01
DAV:  80    -0.132377889264E+04   -0.46816E-03   -0.11832E-04 13568   0.600E-02    0.250E-01
DAV:  81    -0.132377955735E+04   -0.66471E-03   -0.15067E-04 13760   0.680E-02    0.288E-01
DAV:  82    -0.132377948485E+04    0.72503E-04   -0.10097E-04 13512   0.564E-02    0.161E-01
DAV:  83    -0.132377986512E+04   -0.38027E-03   -0.59304E-05 13977   0.383E-02    0.124E-01
DAV:  84    -0.132378034733E+04   -0.48221E-03   -0.49436E-05 13096   0.363E-02    0.140E-01
DAV:  85    -0.132378065645E+04   -0.30912E-03   -0.53295E-05 13336   0.359E-02    0.149E-01
DAV:  86    -0.132378088205E+04   -0.22559E-03   -0.64393E-05 13400   0.465E-02    0.222E-01
DAV:  87    -0.132378114080E+04   -0.25875E-03   -0.52921E-05 13249   0.409E-02    0.888E-02
DAV:  88    -0.132378131751E+04   -0.17671E-03   -0.21376E-05 10384   0.215E-02    0.716E-02
DAV:  89    -0.132378166705E+04   -0.34955E-03   -0.30866E-05 11425   0.226E-02    0.873E-02
DAV:  90    -0.132378192972E+04   -0.26266E-03   -0.27543E-05 11168   0.230E-02    0.941E-02
DAV:  91    -0.132378199960E+04   -0.69884E-04   -0.24509E-05  9688   0.266E-02    0.102E-01
DAV:  92    -0.132378216211E+04   -0.16251E-03   -0.24353E-05  9977   0.230E-02    0.748E-02
DAV:  93    -0.132378224570E+04   -0.83590E-04   -0.11942E-05  8400   0.159E-02    0.631E-02
DAV:  94    -0.132378235029E+04   -0.10458E-03   -0.13337E-05  8760   0.163E-02    0.612E-02
DAV:  95    -0.132378243465E+04   -0.84366E-04   -0.12466E-05  9120   0.156E-02    0.471E-02
DAV:  96    -0.132378241183E+04    0.22823E-04   -0.10912E-05  7322   0.195E-02    0.826E-02
DAV:  97    -0.132378243239E+04   -0.20557E-04   -0.97236E-06  6968   0.185E-02    0.527E-02
DAV:  98    -0.132378248733E+04   -0.54945E-04   -0.69535E-06  7288   0.123E-02    0.591E-02
DAV:  99    -0.132378256040E+04   -0.73071E-04   -0.14731E-05  8865   0.125E-02    0.480E-02
DAV: 100    -0.132378258558E+04   -0.25172E-04   -0.62639E-06  8176   0.980E-03    0.331E-02
DAV: 101    -0.132378258614E+04   -0.56019E-06   -0.48142E-06  7112   0.117E-02
   1 F= -.14209459E+04 E0= -.14201736E+04  d E =-.154463E+01
