 250 250   0   0
  0.4685622E+01  0.1054150E-08  0.1054150E-08  0.1054150E-08  0.5000000E-15
   1.0000000000000000E-004
  CAR 
 NiAl                                    
     30.58261742    -14.13853788  301     16.67205160      1.00000000
    -14.139  0.0000E+00  0.0000E+00  0.0000E+00  0.0000E+00
    -13.989  0.0000E+00  0.0000E+00  0.0000E+00  0.0000E+00
    -13.840  0.0000E+00  0.0000E+00  0.0000E+00  0.0000E+00
    -13.691  0.0000E+00  0.0000E+00  0.0000E+00  0.0000E+00
    -13.542  0.0000E+00  0.0000E+00  0.0000E+00  0.0000E+00
    -13.393  0.0000E+00  0.0000E+00  0.0000E+00  0.0000E+00
    -13.244  0.0000E+00  0.0000E+00  0.0000E+00  0.0000E+00
    -13.095  0.0000E+00  0.0000E+00  0.0000E+00  0.0000E+00
    -12.946  0.0000E+00  0.0000E+00  0.0000E+00  0.0000E+00
    -12.797  0.0000E+00  0.0000E+00  0.0000E+00  0.0000E+00
    -12.648  0.0000E+00  0.0000E+00  0.0000E+00  0.0000E+00
    -12.499  0.0000E+00  0.0000E+00  0.0000E+00  0.0000E+00
    -12.350  0.2188E-11  0.2187E-11  0.3262E-12  0.3260E-12
    -12.201  0.3058E-02  0.3057E-02  0.4559E-03  0.4557E-03
    -12.052  0.7830E+00  0.7830E+00  0.1172E+00  0.1172E+00
    -11.902  0.5256E+00  0.5256E+00  0.1955E+00  0.1955E+00
    -11.753  0.4549E+01  0.4549E+01  0.8737E+00  0.8737E+00
    -11.604  0.6177E+01  0.6176E+01  0.1794E+01  0.1794E+01
    -11.455  0.3983E+01  0.3983E+01  0.2388E+01  0.2388E+01
    -11.306  0.6466E+01  0.6466E+01  0.3352E+01  0.3352E+01
    -11.157  0.1537E+01  0.1537E+01  0.3581E+01  0.3581E+01
    -11.008  0.3757E+01  0.3757E+01  0.4141E+01  0.4141E+01
    -10.859  0.1906E+02  0.1906E+02  0.6982E+01  0.6982E+01
    -10.710  0.9962E+01  0.9961E+01  0.8467E+01  0.8467E+01
    -10.561  0.1112E+02  0.1112E+02  0.1012E+02  0.1012E+02
    -10.412  0.7004E-02  0.7002E-02  0.1013E+02  0.1013E+02
    -10.263  0.8462E+01  0.8462E+01  0.1139E+02  0.1139E+02
    -10.114  0.9484E+01  0.9483E+01  0.1280E+02  0.1280E+02
     -9.965  0.1780E+02  0.1780E+02  0.1546E+02  0.1546E+02
     -9.815  0.1945E+02  0.1945E+02  0.1835E+02  0.1835E+02
     -9.666  0.1913E+02  0.1913E+02  0.2121E+02  0.2121E+02
     -9.517  0.6491E+01  0.6491E+01  0.2217E+02  0.2217E+02
     -9.368  0.1825E+02  0.1825E+02  0.2490E+02  0.2490E+02
     -9.219  0.2953E+02  0.2953E+02  0.2930E+02  0.2930E+02
     -9.070  0.1395E+02  0.1395E+02  0.3138E+02  0.3138E+02
     -8.921  0.4830E+01  0.4830E+01  0.3210E+02  0.3210E+02
     -8.772  0.2808E+02  0.2808E+02  0.3628E+02  0.3628E+02
     -8.623  0.4287E+02  0.4288E+02  0.4267E+02  0.4267E+02
     -8.474  0.3750E+02  0.3750E+02  0.4826E+02  0.4826E+02
     -8.325  0.4926E+02  0.4926E+02  0.5561E+02  0.5561E+02
     -8.176  0.1621E+02  0.1621E+02  0.5802E+02  0.5802E+02
     -8.027  0.4915E+02  0.4915E+02  0.6535E+02  0.6535E+02
     -7.878  0.6990E+02  0.6990E+02  0.7577E+02  0.7577E+02
     -7.729  0.2141E+02  0.2141E+02  0.7896E+02  0.7896E+02
     -7.579  0.3653E+02  0.3652E+02  0.8441E+02  0.8441E+02
     -7.430  0.4830E+02  0.4829E+02  0.9161E+02  0.9160E+02
     -7.281  0.4631E+02  0.4631E+02  0.9851E+02  0.9851E+02
     -7.132  0.2341E+02  0.2341E+02  0.1020E+03  0.1020E+03
     -6.983  0.1109E+02  0.1109E+02  0.1037E+03  0.1037E+03
     -6.834  0.1934E+02  0.1934E+02  0.1065E+03  0.1065E+03
     -6.685  0.2731E+02  0.2730E+02  0.1106E+03  0.1106E+03
     -6.536  0.1393E+02  0.1393E+02  0.1127E+03  0.1127E+03
     -6.387  0.1406E+02  0.1406E+02  0.1148E+03  0.1148E+03
     -6.238  0.6500E+00  0.6501E+00  0.1149E+03  0.1149E+03
     -6.089  0.4304E+01  0.4304E+01  0.1155E+03  0.1155E+03
     -5.940  0.1581E+02  0.1581E+02  0.1179E+03  0.1179E+03
     -5.791  0.3368E+01  0.3368E+01  0.1184E+03  0.1184E+03
     -5.642  0.1675E+02  0.1675E+02  0.1209E+03  0.1209E+03
     -5.492  0.6252E+00  0.6251E+00  0.1210E+03  0.1210E+03
     -5.343  0.4412E+01  0.4412E+01  0.1216E+03  0.1216E+03
     -5.194  0.2172E+01  0.2172E+01  0.1219E+03  0.1219E+03
     -5.045  0.4541E+01  0.4541E+01  0.1226E+03  0.1226E+03
     -4.896  0.9973E-03  0.9974E-03  0.1226E+03  0.1226E+03
     -4.747  0.6149E+01  0.6149E+01  0.1235E+03  0.1235E+03
     -4.598  0.3912E+01  0.3913E+01  0.1241E+03  0.1241E+03
     -4.449  0.3455E-04  0.3456E-04  0.1241E+03  0.1241E+03
     -4.300  0.5843E+00  0.5842E+00  0.1242E+03  0.1242E+03
     -4.151  0.4441E+01  0.4441E+01  0.1249E+03  0.1249E+03
     -4.002  0.6320E-02  0.6322E-02  0.1249E+03  0.1249E+03
     -3.853  0.1927E-13  0.1927E-13  0.1249E+03  0.1249E+03
     -3.704  0.3687E-03  0.3686E-03  0.1249E+03  0.1249E+03
     -3.555  0.6815E+00  0.6815E+00  0.1250E+03  0.1250E+03
     -3.405  0.1566E+00  0.1566E+00  0.1250E+03  0.1250E+03
     -3.256  0.1378E-06  0.1379E-06  0.1250E+03  0.1250E+03
     -3.107  0.0000E+00  0.0000E+00  0.1250E+03  0.1250E+03
     -2.958  0.0000E+00  0.0000E+00  0.1250E+03  0.1250E+03
     -2.809  0.0000E+00  0.0000E+00  0.1250E+03  0.1250E+03
     -2.660  0.0000E+00  0.0000E+00  0.1250E+03  0.1250E+03
     -2.511  0.0000E+00  0.0000E+00  0.1250E+03  0.1250E+03
     -2.362  0.0000E+00  0.0000E+00  0.1250E+03  0.1250E+03
     -2.213  0.0000E+00  0.0000E+00  0.1250E+03  0.1250E+03
     -2.064  0.0000E+00  0.0000E+00  0.1250E+03  0.1250E+03
     -1.915  0.0000E+00  0.0000E+00  0.1250E+03  0.1250E+03
     -1.766  0.0000E+00  0.0000E+00  0.1250E+03  0.1250E+03
     -1.617  0.0000E+00  0.0000E+00  0.1250E+03  0.1250E+03
     -1.468  0.0000E+00  0.0000E+00  0.1250E+03  0.1250E+03
     -1.318  0.0000E+00  0.0000E+00  0.1250E+03  0.1250E+03
     -1.169  0.0000E+00  0.0000E+00  0.1250E+03  0.1250E+03
     -1.020  0.0000E+00  0.0000E+00  0.1250E+03  0.1250E+03
     -0.871  0.0000E+00  0.0000E+00  0.1250E+03  0.1250E+03
     -0.722  0.0000E+00  0.0000E+00  0.1250E+03  0.1250E+03
     -0.573  0.0000E+00  0.0000E+00  0.1250E+03  0.1250E+03
     -0.424  0.0000E+00  0.0000E+00  0.1250E+03  0.1250E+03
     -0.275  0.0000E+00  0.0000E+00  0.1250E+03  0.1250E+03
     -0.126  0.0000E+00  0.0000E+00  0.1250E+03  0.1250E+03
      0.023  0.1047E-13  0.1047E-13  0.1250E+03  0.1250E+03
      0.172  0.4931E-03  0.4929E-03  0.1250E+03  0.1250E+03
      0.321  0.1883E+01  0.1883E+01  0.1253E+03  0.1253E+03
      0.470  0.6325E+00  0.6326E+00  0.1254E+03  0.1254E+03
      0.619  0.6788E+01  0.6787E+01  0.1264E+03  0.1264E+03
      0.769  0.3284E+01  0.3285E+01  0.1269E+03  0.1269E+03
      0.918  0.8774E+01  0.8774E+01  0.1282E+03  0.1282E+03
      1.067  0.1280E+01  0.1280E+01  0.1284E+03  0.1284E+03
      1.216  0.4067E+01  0.4066E+01  0.1290E+03  0.1290E+03
      1.365  0.3249E+01  0.3248E+01  0.1295E+03  0.1295E+03
      1.514  0.2788E+02  0.2788E+02  0.1336E+03  0.1336E+03
      1.663  0.3104E+02  0.3104E+02  0.1382E+03  0.1382E+03
      1.812  0.9234E+01  0.9235E+01  0.1396E+03  0.1396E+03
      1.961  0.5396E-03  0.5395E-03  0.1396E+03  0.1396E+03
      2.110  0.1462E+02  0.1462E+02  0.1418E+03  0.1418E+03
      2.259  0.2961E+02  0.2961E+02  0.1462E+03  0.1462E+03
      2.408  0.4628E+02  0.4628E+02  0.1531E+03  0.1531E+03
      2.557  0.1503E+02  0.1503E+02  0.1554E+03  0.1554E+03
      2.706  0.5210E+02  0.5209E+02  0.1631E+03  0.1631E+03
      2.856  0.6937E+02  0.6938E+02  0.1735E+03  0.1735E+03
      3.005  0.7217E+00  0.7217E+00  0.1736E+03  0.1736E+03
      3.154  0.8759E+02  0.8759E+02  0.1866E+03  0.1866E+03
      3.303  0.1098E+03  0.1098E+03  0.2030E+03  0.2030E+03
      3.452  0.3772E+02  0.3772E+02  0.2086E+03  0.2086E+03
      3.601  0.4573E+02  0.4573E+02  0.2154E+03  0.2154E+03
      3.750  0.5708E+02  0.5708E+02  0.2239E+03  0.2239E+03
      3.899  0.7603E+02  0.7604E+02  0.2353E+03  0.2353E+03
      4.048  0.5721E+02  0.5721E+02  0.2438E+03  0.2438E+03
      4.197  0.3320E+02  0.3320E+02  0.2488E+03  0.2488E+03
      4.346  0.5673E+02  0.5673E+02  0.2572E+03  0.2572E+03
      4.495  0.4778E+02  0.4779E+02  0.2643E+03  0.2643E+03
      4.644  0.4191E+02  0.4191E+02  0.2706E+03  0.2706E+03
      4.793  0.7596E+02  0.7597E+02  0.2819E+03  0.2819E+03
      4.942  0.2285E+01  0.2286E+01  0.2823E+03  0.2823E+03
      5.092  0.2845E+01  0.2844E+01  0.2827E+03  0.2827E+03
      5.241  0.3979E+02  0.3979E+02  0.2886E+03  0.2886E+03
      5.390  0.4500E+02  0.4500E+02  0.2953E+03  0.2953E+03
      5.539  0.2789E+02  0.2789E+02  0.2995E+03  0.2995E+03
      5.688  0.1202E+02  0.1202E+02  0.3013E+03  0.3013E+03
      5.837  0.4092E+02  0.4092E+02  0.3074E+03  0.3074E+03
      5.986  0.5722E+02  0.5722E+02  0.3159E+03  0.3159E+03
      6.135  0.5335E+02  0.5335E+02  0.3238E+03  0.3238E+03
      6.284  0.2315E+02  0.2315E+02  0.3273E+03  0.3273E+03
      6.433  0.2526E+02  0.2526E+02  0.3311E+03  0.3311E+03
      6.582  0.9429E+02  0.9429E+02  0.3451E+03  0.3451E+03
      6.731  0.3445E+02  0.3445E+02  0.3503E+03  0.3503E+03
      6.880  0.1801E+02  0.1800E+02  0.3529E+03  0.3529E+03
      7.029  0.2114E+02  0.2114E+02  0.3561E+03  0.3561E+03
      7.179  0.2284E+02  0.2284E+02  0.3595E+03  0.3595E+03
      7.328  0.1081E+02  0.1081E+02  0.3611E+03  0.3611E+03
      7.477  0.9965E+00  0.9966E+00  0.3613E+03  0.3613E+03
      7.626  0.1380E+02  0.1380E+02  0.3633E+03  0.3633E+03
      7.775  0.1708E+02  0.1708E+02  0.3659E+03  0.3659E+03
      7.924  0.6377E+02  0.6377E+02  0.3754E+03  0.3754E+03
      8.073  0.6701E+02  0.6701E+02  0.3854E+03  0.3854E+03
      8.222  0.5809E+02  0.5809E+02  0.3940E+03  0.3940E+03
      8.371  0.1608E+02  0.1608E+02  0.3964E+03  0.3964E+03
      8.520  0.5199E+02  0.5199E+02  0.4042E+03  0.4042E+03
      8.669  0.4441E+02  0.4441E+02  0.4108E+03  0.4108E+03
      8.818  0.4544E+02  0.4544E+02  0.4176E+03  0.4176E+03
      8.967  0.1298E+03  0.1298E+03  0.4369E+03  0.4369E+03
      9.116  0.3624E+02  0.3625E+02  0.4423E+03  0.4423E+03
      9.266  0.8260E+02  0.8260E+02  0.4546E+03  0.4546E+03
      9.415  0.6456E+02  0.6457E+02  0.4642E+03  0.4642E+03
      9.564  0.1675E+02  0.1675E+02  0.4667E+03  0.4667E+03
      9.713  0.2844E+02  0.2844E+02  0.4710E+03  0.4710E+03
      9.862  0.5496E+02  0.5496E+02  0.4792E+03  0.4792E+03
     10.011  0.3385E+02  0.3385E+02  0.4842E+03  0.4842E+03
     10.160  0.3820E+02  0.3820E+02  0.4899E+03  0.4899E+03
     10.309  0.8881E+02  0.8881E+02  0.5031E+03  0.5031E+03
     10.458  0.5355E+02  0.5355E+02  0.5111E+03  0.5111E+03
     10.607  0.4229E+02  0.4229E+02  0.5174E+03  0.5174E+03
     10.756  0.8815E+02  0.8815E+02  0.5306E+03  0.5306E+03
     10.905  0.8174E+02  0.8174E+02  0.5428E+03  0.5428E+03
     11.054  0.1068E+03  0.1068E+03  0.5587E+03  0.5587E+03
     11.203  0.7576E+02  0.7576E+02  0.5700E+03  0.5700E+03
     11.353  0.6219E+02  0.6219E+02  0.5792E+03  0.5792E+03
     11.502  0.1857E+02  0.1857E+02  0.5820E+03  0.5820E+03
     11.651  0.4170E+02  0.4170E+02  0.5882E+03  0.5882E+03
     11.800  0.1944E+02  0.1944E+02  0.5911E+03  0.5911E+03
     11.949  0.3334E+01  0.3334E+01  0.5916E+03  0.5916E+03
     12.098  0.1121E+03  0.1121E+03  0.6083E+03  0.6083E+03
     12.247  0.3381E+02  0.3381E+02  0.6134E+03  0.6134E+03
     12.396  0.2840E-03  0.2840E-03  0.6134E+03  0.6134E+03
     12.545  0.6678E+00  0.6678E+00  0.6135E+03  0.6135E+03
     12.694  0.7143E+01  0.7143E+01  0.6145E+03  0.6145E+03
     12.843  0.3800E+02  0.3800E+02  0.6202E+03  0.6202E+03
     12.992  0.3501E+02  0.3501E+02  0.6254E+03  0.6254E+03
     13.141  0.1595E+02  0.1595E+02  0.6278E+03  0.6278E+03
     13.290  0.7469E+02  0.7469E+02  0.6389E+03  0.6389E+03
     13.440  0.5733E+02  0.5733E+02  0.6475E+03  0.6475E+03
     13.589  0.1918E+03  0.1918E+03  0.6761E+03  0.6761E+03
     13.738  0.1350E+03  0.1350E+03  0.6962E+03  0.6962E+03
     13.887  0.8440E+02  0.8440E+02  0.7088E+03  0.7088E+03
     14.036  0.1315E+03  0.1315E+03  0.7284E+03  0.7284E+03
     14.185  0.6617E+02  0.6617E+02  0.7383E+03  0.7383E+03
     14.334  0.1189E+03  0.1189E+03  0.7560E+03  0.7560E+03
     14.483  0.8458E+02  0.8458E+02  0.7686E+03  0.7686E+03
     14.632  0.1112E+03  0.1112E+03  0.7852E+03  0.7852E+03
     14.781  0.7103E+02  0.7103E+02  0.7958E+03  0.7958E+03
     14.930  0.9604E+02  0.9604E+02  0.8101E+03  0.8101E+03
     15.079  0.8294E+02  0.8294E+02  0.8224E+03  0.8224E+03
     15.228  0.1060E+03  0.1060E+03  0.8382E+03  0.8382E+03
     15.377  0.5826E+02  0.5826E+02  0.8469E+03  0.8469E+03
     15.526  0.1172E+03  0.1172E+03  0.8644E+03  0.8644E+03
     15.676  0.8205E+02  0.8205E+02  0.8766E+03  0.8766E+03
     15.825  0.1657E+03  0.1657E+03  0.9013E+03  0.9013E+03
     15.974  0.1146E+03  0.1146E+03  0.9184E+03  0.9184E+03
     16.123  0.1270E+03  0.1270E+03  0.9373E+03  0.9373E+03
     16.272  0.1374E+03  0.1374E+03  0.9578E+03  0.9578E+03
     16.421  0.1579E+03  0.1579E+03  0.9814E+03  0.9814E+03
     16.570  0.6425E+02  0.6425E+02  0.9909E+03  0.9909E+03
     16.719  0.8507E+02  0.8507E+02  0.1004E+04  0.1004E+04
     16.868  0.6198E+02  0.6198E+02  0.1013E+04  0.1013E+04
     17.017  0.1971E+02  0.1971E+02  0.1016E+04  0.1016E+04
     17.166  0.1060E+03  0.1060E+03  0.1032E+04  0.1032E+04
     17.315  0.1659E+03  0.1659E+03  0.1056E+04  0.1056E+04
     17.464  0.4766E+02  0.4766E+02  0.1063E+04  0.1063E+04
     17.613  0.2179E+02  0.2179E+02  0.1067E+04  0.1067E+04
     17.763  0.9838E+02  0.9838E+02  0.1081E+04  0.1081E+04
     17.912  0.4903E+02  0.4903E+02  0.1089E+04  0.1089E+04
     18.061  0.8497E+02  0.8497E+02  0.1101E+04  0.1101E+04
     18.210  0.7594E+02  0.7594E+02  0.1113E+04  0.1113E+04
     18.359  0.3938E+02  0.3938E+02  0.1119E+04  0.1119E+04
     18.508  0.2190E+02  0.2190E+02  0.1122E+04  0.1122E+04
     18.657  0.1472E+02  0.1472E+02  0.1124E+04  0.1124E+04
     18.806  0.6799E+01  0.6799E+01  0.1125E+04  0.1125E+04
     18.955  0.2715E-01  0.2715E-01  0.1125E+04  0.1125E+04
     19.104  0.9160E-10  0.9163E-10  0.1125E+04  0.1125E+04
     19.253  0.0000E+00  0.0000E+00  0.1125E+04  0.1125E+04
     19.402  0.0000E+00  0.0000E+00  0.1125E+04  0.1125E+04
     19.551  0.0000E+00  0.0000E+00  0.1125E+04  0.1125E+04
     19.700  0.0000E+00  0.0000E+00  0.1125E+04  0.1125E+04
     19.850  0.0000E+00  0.0000E+00  0.1125E+04  0.1125E+04
     19.999  0.0000E+00  0.0000E+00  0.1125E+04  0.1125E+04
     20.148  0.0000E+00  0.0000E+00  0.1125E+04  0.1125E+04
     20.297  0.0000E+00  0.0000E+00  0.1125E+04  0.1125E+04
     20.446  0.0000E+00  0.0000E+00  0.1125E+04  0.1125E+04
     20.595  0.0000E+00  0.0000E+00  0.1125E+04  0.1125E+04
     20.744  0.0000E+00  0.0000E+00  0.1125E+04  0.1125E+04
     20.893  0.0000E+00  0.0000E+00  0.1125E+04  0.1125E+04
     21.042  0.0000E+00  0.0000E+00  0.1125E+04  0.1125E+04
     21.191  0.0000E+00  0.0000E+00  0.1125E+04  0.1125E+04
     21.340  0.0000E+00  0.0000E+00  0.1125E+04  0.1125E+04
     21.489  0.0000E+00  0.0000E+00  0.1125E+04  0.1125E+04
     21.638  0.0000E+00  0.0000E+00  0.1125E+04  0.1125E+04
     21.787  0.0000E+00  0.0000E+00  0.1125E+04  0.1125E+04
     21.937  0.0000E+00  0.0000E+00  0.1125E+04  0.1125E+04
     22.086  0.0000E+00  0.0000E+00  0.1125E+04  0.1125E+04
     22.235  0.0000E+00  0.0000E+00  0.1125E+04  0.1125E+04
     22.384  0.0000E+00  0.0000E+00  0.1125E+04  0.1125E+04
     22.533  0.0000E+00  0.0000E+00  0.1125E+04  0.1125E+04
     22.682  0.0000E+00  0.0000E+00  0.1125E+04  0.1125E+04
     22.831  0.0000E+00  0.0000E+00  0.1125E+04  0.1125E+04
     22.980  0.0000E+00  0.0000E+00  0.1125E+04  0.1125E+04
     23.129  0.0000E+00  0.0000E+00  0.1125E+04  0.1125E+04
     23.278  0.0000E+00  0.0000E+00  0.1125E+04  0.1125E+04
     23.427  0.0000E+00  0.0000E+00  0.1125E+04  0.1125E+04
     23.576  0.0000E+00  0.0000E+00  0.1125E+04  0.1125E+04
     23.725  0.0000E+00  0.0000E+00  0.1125E+04  0.1125E+04
     23.874  0.0000E+00  0.0000E+00  0.1125E+04  0.1125E+04
     24.024  0.0000E+00  0.0000E+00  0.1125E+04  0.1125E+04
     24.173  0.0000E+00  0.0000E+00  0.1125E+04  0.1125E+04
     24.322  0.0000E+00  0.0000E+00  0.1125E+04  0.1125E+04
     24.471  0.0000E+00  0.0000E+00  0.1125E+04  0.1125E+04
     24.620  0.1098E-05  0.1097E-05  0.1125E+04  0.1125E+04
     24.769  0.2639E+00  0.2639E+00  0.1125E+04  0.1125E+04
     24.918  0.5745E+00  0.5745E+00  0.1125E+04  0.1125E+04
     25.067  0.7902E-04  0.7906E-04  0.1125E+04  0.1125E+04
     25.216  0.3246E-01  0.3245E-01  0.1125E+04  0.1125E+04
     25.365  0.7025E+01  0.7025E+01  0.1126E+04  0.1126E+04
     25.514  0.4891E+00  0.4892E+00  0.1126E+04  0.1126E+04
     25.663  0.1379E+01  0.1379E+01  0.1126E+04  0.1126E+04
     25.812  0.5468E+01  0.5468E+01  0.1127E+04  0.1127E+04
     25.961  0.8241E+01  0.8242E+01  0.1128E+04  0.1128E+04
     26.111  0.4809E-02  0.4811E-02  0.1129E+04  0.1129E+04
     26.260  0.3546E-01  0.3545E-01  0.1129E+04  0.1129E+04
     26.409  0.1518E+02  0.1518E+02  0.1131E+04  0.1131E+04
     26.558  0.2166E+02  0.2166E+02  0.1134E+04  0.1134E+04
     26.707  0.1357E+00  0.1356E+00  0.1134E+04  0.1134E+04
     26.856  0.7995E+01  0.7994E+01  0.1135E+04  0.1135E+04
     27.005  0.4052E+02  0.4051E+02  0.1141E+04  0.1141E+04
     27.154  0.1770E+02  0.1771E+02  0.1144E+04  0.1144E+04
     27.303  0.2574E+02  0.2573E+02  0.1148E+04  0.1148E+04
     27.452  0.6038E+02  0.6038E+02  0.1157E+04  0.1157E+04
     27.601  0.2507E+02  0.2507E+02  0.1160E+04  0.1160E+04
     27.750  0.4154E+02  0.4155E+02  0.1167E+04  0.1167E+04
     27.899  0.3005E+02  0.3020E+02  0.1171E+04  0.1171E+04
     28.048  0.3888E+02  0.3871E+02  0.1177E+04  0.1177E+04
     28.197  0.3565E+02  0.3566E+02  0.1182E+04  0.1182E+04
     28.347  0.2616E+02  0.2595E+02  0.1186E+04  0.1186E+04
     28.496  0.7056E+02  0.7044E+02  0.1197E+04  0.1197E+04
     28.645  0.2908E+02  0.2940E+02  0.1201E+04  0.1201E+04
     28.794  0.1692E-01  0.1751E-01  0.1201E+04  0.1201E+04
     28.943  0.0000E+00  0.2188E-11  0.1201E+04  0.1201E+04
     29.092  0.0000E+00  0.0000E+00  0.1201E+04  0.1201E+04
     29.241  0.0000E+00  0.0000E+00  0.1201E+04  0.1201E+04
     29.390  0.0000E+00  0.0000E+00  0.1201E+04  0.1201E+04
     29.539  0.0000E+00  0.0000E+00  0.1201E+04  0.1201E+04
     29.688  0.0000E+00  0.0000E+00  0.1201E+04  0.1201E+04
     29.837  0.0000E+00  0.0000E+00  0.1201E+04  0.1201E+04
     29.986  0.0000E+00  0.0000E+00  0.1201E+04  0.1201E+04
     30.135  0.0000E+00  0.0000E+00  0.1201E+04  0.1201E+04
     30.284  0.0000E+00  0.0000E+00  0.1201E+04  0.1201E+04
     30.434  0.0000E+00  0.0000E+00  0.1201E+04  0.1201E+04
     30.583  0.0000E+00  0.0000E+00  0.1201E+04  0.1201E+04
