       N       E                     dE             d eps       ncg     rms          rms(c)
DAV:   1     0.287790338695E+05    0.28779E+05   -0.76018E+05 19464   0.185E+03
DAV:   2     0.405591360256E+04   -0.24723E+05   -0.23581E+05 19216   0.637E+02
DAV:   3    -0.144742130175E+03   -0.42007E+04   -0.36539E+04 20384   0.284E+02
DAV:   4    -0.603310550562E+03   -0.45857E+03   -0.44188E+03 28168   0.105E+02
DAV:   5    -0.617749485390E+03   -0.14439E+02   -0.14361E+02 27640   0.181E+01    0.602E+02
DAV:   6    -0.442638788316E+03    0.17511E+03   -0.11346E+03 29320   0.102E+02    0.371E+02
DAV:   7    -0.126822208450E+04   -0.82558E+03   -0.16145E+03 22376   0.274E+02    0.418E+02
DAV:   8    -0.107262131907E+04    0.19560E+03   -0.14973E+03 23616   0.226E+02    0.261E+02
DAV:   9    -0.984113641336E+03    0.88508E+02   -0.82113E+02 24312   0.190E+02    0.286E+02
DAV:  10    -0.694541384851E+03    0.28957E+03   -0.44882E+02 21232   0.142E+02    0.203E+02
DAV:  11    -0.460719507809E+03    0.23382E+03   -0.28911E+02 22640   0.996E+01    0.146E+02
DAV:  12    -0.460442937514E+03    0.27657E+00   -0.19757E+02 22136   0.898E+01    0.134E+02
DAV:  13    -0.468290095975E+03   -0.78472E+01   -0.15014E+02 20536   0.704E+01    0.116E+02
DAV:  14    -0.417967071573E+03    0.50323E+02   -0.75950E+01 20664   0.490E+01    0.761E+01
DAV:  15    -0.398833569218E+03    0.19134E+02   -0.34736E+01 23528   0.293E+01    0.612E+01
DAV:  16    -0.390441809014E+03    0.83918E+01   -0.16251E+01 22400   0.190E+01    0.464E+01
DAV:  17    -0.389199970644E+03    0.12418E+01   -0.10212E+01 21232   0.121E+01    0.411E+01
DAV:  18    -0.390618669384E+03   -0.14187E+01   -0.94663E+00 21688   0.167E+01    0.384E+01
DAV:  19    -0.390412724918E+03    0.20594E+00   -0.63294E+00 22368   0.154E+01    0.388E+01
DAV:  20    -0.386579544461E+03    0.38332E+01   -0.56162E+00 21512   0.159E+01    0.263E+01
DAV:  21    -0.386477362820E+03    0.10218E+00   -0.48197E+00 21408   0.129E+01    0.239E+01
DAV:  22    -0.385134497714E+03    0.13429E+01   -0.38875E+00 22072   0.786E+00    0.140E+01
DAV:  23    -0.384927099562E+03    0.20740E+00   -0.13744E+00 21224   0.566E+00    0.109E+01
DAV:  24    -0.384540989202E+03    0.38611E+00   -0.86199E-01 20760   0.418E+00    0.719E+00
DAV:  25    -0.384511103546E+03    0.29886E-01   -0.29107E-01 21856   0.190E+00    0.644E+00
DAV:  26    -0.384440535146E+03    0.70568E-01   -0.15954E-01 21456   0.136E+00    0.384E+00
DAV:  27    -0.384423249612E+03    0.17286E-01   -0.76714E-02 29544   0.771E-01    0.282E+00
DAV:  28    -0.384406656205E+03    0.16593E-01   -0.24831E-02 22280   0.493E-01    0.206E+00
DAV:  29    -0.384399190951E+03    0.74653E-02   -0.18232E-02 23616   0.392E-01    0.144E+00
DAV:  30    -0.384396951001E+03    0.22399E-02   -0.67188E-03 21768   0.312E-01    0.117E+00
DAV:  31    -0.384392399615E+03    0.45514E-02   -0.44029E-03 25000   0.289E-01    0.647E-01
DAV:  32    -0.384392100862E+03    0.29875E-03   -0.36982E-03 20600   0.178E-01    0.631E-01
DAV:  33    -0.384391924258E+03    0.17660E-03   -0.73663E-04 20616   0.117E-01    0.604E-01
DAV:  34    -0.384391315178E+03    0.60908E-03   -0.39727E-04 24096   0.759E-02    0.474E-01
DAV:  35    -0.384390624197E+03    0.69098E-03   -0.31462E-04 27776   0.101E-01    0.256E-01
DAV:  36    -0.384390616604E+03    0.75925E-05   -0.33195E-04 26240   0.446E-02    0.216E-01
DAV:  37    -0.384390605747E+03    0.10857E-04   -0.69737E-05 21624   0.173E-02    0.204E-01
DAV:  38    -0.384390563321E+03    0.42426E-04   -0.22364E-05 20656   0.203E-02    0.170E-01
DAV:  39    -0.384390484670E+03    0.78651E-04   -0.26186E-05 29832   0.307E-02    0.105E-01
DAV:  40    -0.384390453251E+03    0.31419E-04   -0.15385E-05 28912   0.172E-02    0.596E-02
DAV:  41    -0.384390446995E+03    0.62557E-05   -0.10668E-05 26320   0.778E-03    0.401E-02
DAV:  42    -0.384390443980E+03    0.30151E-05   -0.20370E-06 21384   0.437E-03    0.282E-02
DAV:  43    -0.384390442147E+03    0.18329E-05   -0.47679E-07 18560   0.366E-03    0.191E-02
DAV:  44    -0.384390440916E+03    0.12308E-05   -0.17087E-06 25744   0.586E-03    0.688E-03
DAV:  45    -0.384390440863E+03    0.53646E-07   -0.10264E-06 19560   0.309E-03    0.418E-03
DAV:  46    -0.384390441000E+03   -0.13738E-06   -0.14819E-07 12336   0.142E-03    0.297E-03
DAV:  47    -0.384390441086E+03   -0.85874E-07   -0.20311E-07 11808   0.144E-03
   1 F= -.50951704E+03 E0= -.50939713E+03  d E =-.239807E+00  mag=     0.0006
