 vasp.6.2.1 16May21 (build Jun 16 2021 03:23:30) complex                         
 executed on             LinuxPGI date 2022.04.24  20:01:46
 running on    1 total cores
 distrk:  each k-point on    1 cores,    1 groups
 distr:  one band on NCORE=   1 cores,    1 groups


--------------------------------------------------------------------------------------------------------


 INCAR:
   SYSTEM = NiAl
   ISTART = 0
   EDIFF = 1E-7
   NELMIN = 6
   IVDW = 12
   ISPIN = 2
   MAGMOM = 2 -2 2 -2 2 -2 2 -2 2 -2 2 -2 2 -2 2 -2 2 -2 2 -2 2 -2 2 -2 2 -2 2 -2 2 -2 2 -2 2 -2 2 -2 2 -2 2 -2 2 -2 2 -2 2 -2 2 -2 2 -2 2 -2 2 -2 2 -2 2 -2 2 -2 2 -2 2 -2 2 -2 2 -2 2 -2 2 -2 2 -2 2 -2 2 -2 2 -2 2 -2 2 -2 2 -2 2 -2 2 -2 2 -2 2 -2 2 -2 2 -2 2 -2 2 -2 2 -2 2 -2 2 -2 2 -2 2 -2 2 -2 2 -2 2 -2 2 -2 2 -2 2 -2 2 125*0
   LWAVE = .FALSE.
   LCHARG = .FALSE.
   LREAL = Auto
   NCORE = 1
   LPLANE = .TRUE.
   ENCUT = 360.00 eV
   ISMEAR = 0
   SIGMA = 0.05

 POTCAR:    PAW Ni_GW 31Mar2010                   
 POTCAR:    PAW O_GW 19Mar2012                    
 POTCAR:    PAW Ni_GW 31Mar2010                   
   VRHFIN =Ni:                                                                                      
   LEXCH  = PE                                                                                      
   EATOM  =  1077.6740 eV,   79.2068 Ry                                                             
                                                                                                    
   TITEL  = PAW Ni_GW 31Mar2010                                                                     
   LULTRA =        F    use ultrasoft PP ?                                                          
   IUNSCR =        1    unscreen: 0-lin 1-nonlin 2-no                                               
   RPACOR =    1.800    partial core radius                                                         
   POMASS =   58.690; ZVAL   =   10.000    mass and valenz                                          
   RCORE  =    2.300    outmost cutoff radius                                                       
   RWIGS  =    2.430; RWIGS  =    1.286    wigner-seitz radius (au A)                               
   ENMAX  =  357.323; ENMIN  =  267.992 eV                                                          
   RCLOC  =    1.681    cutoff for local pot                                                        
   LCOR   =        T    correct aug charges                                                         
   LPAW   =        T    paw PP                                                                      
   EAUG   =  802.310                                                                                
   DEXC   =    0.000                                                                                
   RMAX   =    2.357    core radius for proj-oper                                                   
   RAUG   =    1.300    factor for augmentation sphere                                              
   RDEP   =    2.390    radius for radial grids                                                     
   RDEPT  =    1.800    core radius for aug-charge                                                  
                                                                                                    
   Atomic configuration                                                                             
    9 entries                                                                                       
     n  l   j            E        occ.                                                              
     1  0  0.50     -8206.4253   2.0000                                                             
     2  0  0.50      -976.1748   2.0000                                                             
     2  1  1.50      -839.0571   6.0000                                                             
     3  0  0.50      -105.9991   2.0000                                                             
     3  1  1.50       -66.4603   6.0000                                                             
     3  2  2.50        -4.6458   9.0000                                                             
     4  0  0.50        -4.4926   1.0000                                                             
     4  1  1.50        -4.0817   0.0000                                                             
     4  3  2.50        -1.3606   0.0000                                                             
   Description                                                                                      
     l       E           TYP  RCUT    TYP  RCUT                                                     
     2     -4.6457935     23  2.000                                                                 
     2     -6.0063761     23  2.000                                                                 
     0     -4.4925599     23  2.300                                                                 
     0     54.4233040     23  2.300                                                                 
     1     -2.7211652     23  2.300                                                                 
     1     68.0291300     23  2.300                                                                 
     3     27.2116520     23  2.000                                                                 
  local pseudopotential read in
  partial core-charges read in
  partial kinetic energy density read in
  kinetic energy density of atom read in
  atomic valenz-charges read in
  non local Contribution for L=            2  read in
    real space projection operators read in
  non local Contribution for L=            2  read in
    real space projection operators read in
  non local Contribution for L=            0  read in
    real space projection operators read in
  non local Contribution for L=            0  read in
    real space projection operators read in
  non local Contribution for L=            1  read in
    real space projection operators read in
  non local Contribution for L=            1  read in
    real space projection operators read in
  non local Contribution for L=            3  read in
    real space projection operators read in
    PAW grid and wavefunctions read in
 
   number of l-projection  operators is LMAX  =            7
   number of lm-projection operators is LMMAX =           25
 
 POTCAR:    PAW O_GW 19Mar2012                    
   VRHFIN =O: s2p4                                                                                  
   LEXCH  = PE                                                                                      
   EATOM  =   432.3788 eV,   31.7789 Ry                                                             
                                                                                                    
   TITEL  = PAW O_GW 19Mar2012                                                                      
   LULTRA =        F    use ultrasoft PP ?                                                          
   IUNSCR =        1    unscreen: 0-lin 1-nonlin 2-no                                               
   RPACOR =    0.800    partial core radius                                                         
   POMASS =   16.000; ZVAL   =    6.000    mass and valenz                                          
   RCORE  =    1.600    outmost cutoff radius                                                       
   RWIGS  =    1.600; RWIGS  =    0.847    wigner-seitz radius (au A)                               
   ENMAX  =  434.431; ENMIN  =  325.824 eV                                                          
   ICORE  =        3    local potential                                                             
   LCOR   =        T    correct aug charges                                                         
   LPAW   =        T    paw PP                                                                      
   EAUG   = 1139.609                                                                                
   DEXC   =    0.000                                                                                
   RMAX   =    1.629    core radius for proj-oper                                                   
   RAUG   =    1.300    factor for augmentation sphere                                              
   RDEP   =    1.652    radius for radial grids                                                     
   RDEPT  =    1.200    core radius for aug-charge                                                  
                                                                                                    
   Atomic configuration                                                                             
    5 entries                                                                                       
     n  l   j            E        occ.                                                              
     1  0  0.50      -514.6923   2.0000                                                             
     2  0  0.50       -23.9615   2.0000                                                             
     2  1  0.50        -9.0305   4.0000                                                             
     3  2  1.50        -9.5241   0.0000                                                             
     4  3  2.50        -9.5241   0.0000                                                             
   Description                                                                                      
     l       E           TYP  RCUT    TYP  RCUT                                                     
     0    -23.9615316     23  1.150                                                                 
     0    -25.3221142     23  1.150                                                                 
     0    244.9048680     23  1.300                                                                 
     1     -9.0304908     23  1.500                                                                 
     1     -6.9258396     23  1.500                                                                 
     1    122.4524340     23  1.500                                                                 
     2     13.6058260     23  1.500                                                                 
     2    190.4815640     23  1.600                                                                 
     3     54.4233040     23  1.400                                                                 
  local pseudopotential read in
  partial core-charges read in
  partial kinetic energy density read in
  kinetic energy density of atom read in
  atomic valenz-charges read in
  non local Contribution for L=            0  read in
    real space projection operators read in
  non local Contribution for L=            0  read in
    real space projection operators read in
  non local Contribution for L=            0  read in
    real space projection operators read in
  non local Contribution for L=            1  read in
    real space projection operators read in
  non local Contribution for L=            1  read in
    real space projection operators read in
  non local Contribution for L=            1  read in
    real space projection operators read in
  non local Contribution for L=            2  read in
    real space projection operators read in
  non local Contribution for L=            2  read in
    real space projection operators read in
    PAW grid and wavefunctions read in
 
   number of l-projection  operators is LMAX  =            8
   number of lm-projection operators is LMMAX =           22
 
 Optimization of the real space projectors (new method)

 maximal supplied QI-value         = 16.25
 optimisation between [QCUT,QGAM] = [  9.59, 19.34] = [ 25.75,104.73] Ry 
 Optimized for a Real-space Cutoff    1.46 Angstroem

   l    n(q)    QCUT    max X(q) W(low)/X(q) W(high)/X(q)  e(spline) 
   2      7     9.588    94.285    0.33E-03    0.50E-03    0.16E-06
   2      7     9.588    92.549    0.33E-03    0.50E-03    0.16E-06
   0      8     9.588    17.118    0.28E-04    0.17E-03    0.57E-07
   0      8     9.588     8.062    0.24E-04    0.17E-03    0.61E-07
   1      8     9.588     4.910    0.48E-03    0.22E-03    0.79E-07
   1      8     9.588     3.344    0.32E-03    0.14E-03    0.56E-07
   3      7     9.588     5.513    0.55E-04    0.16E-03    0.12E-06
 Optimization of the real space projectors (new method)

 maximal supplied QI-value         = 23.62
 optimisation between [QCUT,QGAM] = [  9.68, 19.37] = [ 26.27,105.06] Ry 
 Optimized for a Real-space Cutoff    2.14 Angstroem

   l    n(q)    QCUT    max X(q) W(low)/X(q) W(high)/X(q)  e(spline) 
   0     13     9.685   116.464    0.15E-03    0.15E-03    0.47E-05
   0     13     9.685   116.329    0.15E-03    0.15E-03    0.46E-05
   0     13     9.685     0.942    0.20E-04    0.50E-04    0.17E-05
   1     12     9.685    29.046    0.36E-03    0.11E-02    0.25E-04
   1     12     9.685    24.247    0.38E-03    0.11E-02    0.26E-04
   1     12     9.685     2.381    0.13E-03    0.38E-03    0.78E-05
   2     12     9.685     2.237    0.60E-05    0.28E-04    0.14E-05
   2     12     9.685     1.850    0.17E-04    0.70E-04    0.25E-05
  PAW Ni_GW 31Mar2010                   :
 energy of atom  1       EATOM=-1077.6740
 kinetic energy error for atom=    0.0556 (will be added to EATOM!!)
  PAW O_GW 19Mar2012                    :
 energy of atom  2       EATOM= -432.3788
 kinetic energy error for atom=    0.3913 (will be added to EATOM!!)
 
 
 POSCAR: New structure
  positions in direct lattice
  velocities in cartesian coordinates
 exchange correlation table for  LEXCH =        8
   RHO(1)=    0.500       N(1)  =     2000
   RHO(2)=  100.500       N(2)  =     4000

 VTST: version 4.1, (05/19/21)

 CHAIN: initializing optimizer
 
 OPT: Using VASP Dynamics algorithm
 CHAIN: Read ICHAIN             0
 
 POSCAR: New structure
  positions in direct lattice
  velocities in cartesian coordinates
 


--------------------------------------------------------------------------------------------------------


 ion  position               nearest neighbor table
   1  0.000  0.000  0.000- 126 1.83 130 1.83 146 1.83 150 1.83 226 1.83 230 1.83 246 1.83 250 1.83
                             6 2.11  21 2.11  26 2.11 101 2.11   2 2.11   5 2.11 102 2.98 105 2.98
   2  0.000  0.000  0.200- 127 1.83 147 1.83 227 1.83 247 1.83 226 1.83 146 1.83 246 1.83 126 1.83
                             3 2.11  27 2.11 102 2.11   1 2.11   7 2.11  22 2.11   8 2.98  28 2.98
   3  0.000  0.000  0.400- 127 1.83 128 1.83 147 1.83 148 1.83 227 1.83 228 1.83 247 1.83 248 1.83
                             2 2.11  28 2.11 103 2.11   4 2.11   8 2.11  23 2.11  27 2.98  22 2.98
   4  0.000  0.000  0.600- 128 1.83 129 1.83 148 1.83 149 1.83 228 1.83 229 1.83 248 1.83 249 1.83
                             5 2.11  29 2.11 104 2.11   3 2.11   9 2.11  24 2.11  10 2.98  30 2.98
   5  0.000  0.000  0.800- 129 1.83 149 1.83 229 1.83 249 1.83 130 1.83 230 1.83 150 1.83 250 1.83
                             4 2.11  30 2.11 105 2.11   1 2.11  10 2.11  25 2.11  29 2.98  24 2.98
   6  0.000  0.200  0.000- 131 1.83 135 1.83 231 1.83 235 1.83 226 1.83 230 1.83 126 1.83 130 1.83
                            11 2.11  31 2.11 106 2.11   7 2.11  10 2.11   1 2.11  12 2.98  15 2.98
   7  0.000  0.200  0.200- 132 1.83 232 1.83 127 1.83 227 1.83 231 1.83 131 1.83 226 1.83 126 1.83
                             8 2.11  12 2.11   2 2.11   6 2.11  32 2.11 107 2.11  13 2.98  11 2.98
   8  0.000  0.200  0.400- 132 1.83 133 1.83 232 1.83 233 1.83 227 1.83 228 1.83 127 1.83 128 1.83
                             7 2.11  13 2.11   9 2.11   3 2.11  33 2.11 108 2.11  12 2.98  14 2.98
   9  0.000  0.200  0.600- 133 1.83 134 1.83 233 1.83 234 1.83 228 1.83 229 1.83 128 1.83 129 1.83
                            10 2.11  14 2.11   4 2.11   8 2.11  34 2.11 109 2.11  15 2.98  13 2.98
  10  0.000  0.200  0.800- 134 1.83 234 1.83 135 1.83 229 1.83 129 1.83 235 1.83 130 1.83 230 1.83
                             9 2.11  15 2.11   5 2.11   6 2.11  35 2.11 110 2.11  14 2.98  11 2.98
  11  0.000  0.400  0.000- 131 1.83 135 1.83 136 1.83 140 1.83 231 1.83 235 1.83 236 1.83 240 1.83
                             6 2.11  36 2.11 111 2.11  12 2.11  15 2.11  16 2.11  10 2.98   7 2.98
  12  0.000  0.400  0.200- 132 1.83 137 1.83 232 1.83 237 1.83 231 1.83 136 1.83 236 1.83 131 1.83
                             7 2.11  13 2.11  11 2.11  17 2.11  37 2.11 112 2.11   8 2.98   6 2.98
  13  0.000  0.400  0.400- 132 1.83 133 1.83 137 1.83 138 1.83 232 1.83 233 1.83 237 1.83 238 1.83
                             8 2.11  12 2.11  14 2.11  18 2.11  38 2.11 113 2.11   7 2.98   9 2.98
  14  0.000  0.400  0.600- 133 1.83 134 1.83 138 1.83 139 1.83 233 1.83 234 1.83 238 1.83 239 1.83
                             9 2.11  15 2.11  13 2.11  19 2.11  39 2.11 114 2.11  10 2.98   8 2.98
  15  0.000  0.400  0.800- 134 1.83 139 1.83 234 1.83 239 1.83 135 1.83 235 1.83 140 1.83 240 1.83
                            10 2.11  14 2.11  11 2.11  20 2.11  40 2.11 115 2.11   9 2.98   6 2.98
  16  0.000  0.600  0.000- 136 1.83 140 1.83 141 1.83 145 1.83 236 1.83 240 1.83 241 1.83 245 1.83
                            21 2.11  41 2.11 116 2.11  17 2.11  20 2.11  11 2.11  22 2.98  25 2.98
  17  0.000  0.600  0.200- 137 1.83 142 1.83 237 1.83 242 1.83 236 1.83 141 1.83 241 1.83 136 1.83
                            18 2.11  22 2.11  12 2.11  16 2.11  42 2.11 117 2.11  23 2.98  21 2.98
  18  0.000  0.600  0.400- 137 1.83 138 1.83 142 1.83 143 1.83 237 1.83 238 1.83 242 1.83 243 1.83
                            17 2.11  23 2.11  19 2.11  13 2.11  43 2.11 118 2.11  22 2.98  24 2.98
  19  0.000  0.600  0.600- 138 1.83 139 1.83 143 1.83 144 1.83 238 1.83 239 1.83 243 1.83 244 1.83
                            20 2.11  24 2.11  14 2.11  18 2.11  44 2.11 119 2.11  25 2.98  23 2.98
  20  0.000  0.600  0.800- 139 1.83 144 1.83 239 1.83 244 1.83 140 1.83 240 1.83 145 1.83 245 1.83
                            19 2.11  25 2.11  15 2.11  16 2.11  45 2.11 120 2.11  24 2.98  21 2.98
  21  0.000  0.800  0.000- 141 1.83 145 1.83 241 1.83 245 1.83 146 1.83 150 1.83 246 1.83 250 1.83
                            16 2.11  46 2.11 121 2.11   1 2.11  22 2.11  25 2.11  17 2.98  20 2.98
  22  0.000  0.800  0.200- 142 1.83 242 1.83 147 1.83 241 1.83 141 1.83 247 1.83 246 1.83 146 1.83
                            17 2.11  23 2.11  21 2.11   2 2.11  47 2.11 122 2.11  18 2.98  16 2.98
  23  0.000  0.800  0.400- 142 1.83 143 1.83 242 1.83 243 1.83 147 1.83 148 1.83 247 1.83 248 1.83
                            18 2.11  22 2.11   3 2.11  24 2.11  48 2.11 123 2.11  17 2.98  19 2.98
  24  0.000  0.800  0.600- 143 1.83 144 1.83 243 1.83 244 1.83 148 1.83 149 1.83 248 1.83 249 1.83
                            19 2.11  25 2.11  23 2.11   4 2.11  49 2.11 124 2.11  20 2.98  18 2.98
  25  0.000  0.800  0.800- 144 1.83 244 1.83 149 1.83 145 1.83 245 1.83 249 1.83 150 1.83 250 1.83
                            20 2.11  24 2.11  21 2.11   5 2.11  50 2.11 125 2.11  19 2.98  16 2.98
  26  0.200  0.000  0.000- 151 1.83 155 1.83 171 1.83 175 1.83 126 1.83 130 1.83 146 1.83 150 1.83
                            51 2.11  46 2.11   1 2.11  27 2.11  30 2.11  31 2.11  52 2.98  55 2.98
  27  0.200  0.000  0.200- 152 1.83 172 1.83 171 1.83 151 1.83 127 1.83 147 1.83 146 1.83 126 1.83
                            28 2.11  52 2.11   2 2.11  32 2.11  47 2.11  26 2.11  53 2.98  72 2.98
  28  0.200  0.000  0.400- 152 1.83 153 1.83 172 1.83 173 1.83 127 1.83 128 1.83 147 1.83 148 1.83
                            27 2.11  53 2.11  29 2.11  33 2.11  48 2.11   3 2.11  52 2.98  73 2.98
  29  0.200  0.000  0.600- 153 1.83 154 1.83 173 1.83 174 1.83 128 1.83 129 1.83 148 1.83 149 1.83
                            30 2.11  54 2.11   4 2.11  34 2.11  49 2.11  28 2.11  55 2.98  74 2.98
  30  0.200  0.000  0.800- 154 1.83 174 1.83 155 1.83 175 1.83 129 1.83 149 1.83 130 1.83 150 1.83
                            29 2.11  55 2.11   5 2.11  35 2.11  50 2.11  26 2.11  54 2.98  75 2.98
  31  0.200  0.200  0.000- 156 1.83 160 1.83 151 1.83 155 1.83 131 1.83 135 1.83 126 1.83 130 1.83
                            36 2.11  56 2.11  32 2.11  35 2.11   6 2.11  26 2.11  61 2.98  60 2.98
  32  0.200  0.200  0.200- 157 1.83 152 1.83 156 1.83 132 1.83 151 1.83 131 1.83 127 1.83 126 1.83
                            57 2.11  33 2.11  37 2.11  31 2.11   7 2.11  27 2.11  62 2.98  38 2.98
  33  0.200  0.200  0.400- 157 1.83 158 1.83 152 1.83 153 1.83 132 1.83 133 1.83 127 1.83 128 1.83
                            58 2.11  32 2.11  38 2.11   8 2.11  34 2.11  28 2.11  63 2.98  57 2.98
  34  0.200  0.200  0.600- 158 1.83 159 1.83 153 1.83 154 1.83 133 1.83 134 1.83 128 1.83 129 1.83
                            59 2.11  35 2.11  39 2.11  33 2.11   9 2.11  29 2.11  64 2.98  40 2.98
  35  0.200  0.200  0.800- 159 1.83 154 1.83 134 1.83 160 1.83 155 1.83 129 1.83 135 1.83 130 1.83
                            60 2.11  34 2.11  40 2.11  31 2.11  10 2.11  30 2.11  65 2.98  59 2.98
  36  0.200  0.400  0.000- 156 1.83 160 1.83 161 1.83 165 1.83 131 1.83 135 1.83 136 1.83 140 1.83
                            31 2.11  61 2.11  37 2.11  40 2.11  41 2.11  11 2.11  56 2.98  65 2.98
  37  0.200  0.400  0.200- 157 1.83 162 1.83 161 1.83 156 1.83 132 1.83 137 1.83 136 1.83 131 1.83
                            62 2.11  32 2.11  38 2.11  36 2.11  12 2.11  42 2.11  63 2.98  57 2.98
  38  0.200  0.400  0.400- 157 1.83 158 1.83 162 1.83 163 1.83 132 1.83 133 1.83 137 1.83 138 1.83
                            63 2.11  33 2.11  37 2.11  13 2.11  39 2.11  43 2.11  32 2.98  58 2.98
  39  0.200  0.400  0.600- 158 1.83 159 1.83 163 1.83 164 1.83 133 1.83 134 1.83 138 1.83 139 1.83
                            64 2.11  34 2.11  40 2.11  38 2.11  14 2.11  44 2.11  65 2.98  59 2.98
  40  0.200  0.400  0.800- 159 1.83 164 1.83 160 1.83 165 1.83 134 1.83 139 1.83 135 1.83 140 1.83
                            65 2.11  35 2.11  39 2.11  36 2.11  15 2.11  45 2.11  34 2.98  60 2.98
  41  0.200  0.600  0.000- 161 1.83 165 1.83 166 1.83 170 1.83 136 1.83 140 1.83 141 1.83 145 1.83
                            46 2.11  66 2.11  42 2.11  45 2.11  16 2.11  36 2.11  71 2.98  70 2.98
  42  0.200  0.600  0.200- 162 1.83 167 1.83 166 1.83 161 1.83 137 1.83 142 1.83 141 1.83 136 1.83
                            67 2.11  43 2.11  47 2.11  41 2.11  17 2.11  37 2.11  72 2.98  48 2.98
  43  0.200  0.600  0.400- 162 1.83 163 1.83 167 1.83 168 1.83 137 1.83 138 1.83 142 1.83 143 1.83
                            68 2.11  42 2.11  48 2.11  18 2.11  44 2.11  38 2.11  73 2.98  67 2.98
  44  0.200  0.600  0.600- 163 1.83 164 1.83 168 1.83 169 1.83 138 1.83 139 1.83 143 1.83 144 1.83
                            69 2.11  45 2.11  49 2.11  43 2.11  19 2.11  39 2.11  74 2.98  50 2.98
  45  0.200  0.600  0.800- 164 1.83 169 1.83 165 1.83 170 1.83 139 1.83 144 1.83 140 1.83 145 1.83
                            70 2.11  44 2.11  50 2.11  41 2.11  20 2.11  40 2.11  75 2.98  69 2.98
  46  0.200  0.800  0.000- 166 1.83 170 1.83 171 1.83 175 1.83 141 1.83 145 1.83 146 1.83 150 1.83
                            41 2.11  71 2.11  21 2.11  47 2.11  50 2.11  26 2.11  66 2.98  72 2.98
  47  0.200  0.800  0.200- 167 1.83 166 1.83 142 1.83 172 1.83 171 1.83 141 1.83 147 1.83 146 1.83
                            72 2.11  42 2.11  48 2.11  22 2.11  46 2.11  27 2.11  73 2.98  67 2.98
  48  0.200  0.800  0.400- 167 1.83 168 1.83 172 1.83 173 1.83 142 1.83 143 1.83 147 1.83 148 1.83
                            73 2.11  43 2.11  47 2.11  23 2.11  28 2.11  49 2.11  42 2.98  68 2.98
  49  0.200  0.800  0.600- 168 1.83 169 1.83 173 1.83 174 1.83 143 1.83 144 1.83 148 1.83 149 1.83
                            74 2.11  44 2.11  50 2.11  24 2.11  48 2.11  29 2.11  75 2.98  69 2.98
  50  0.200  0.800  0.800- 169 1.83 144 1.83 170 1.83 174 1.83 175 1.83 145 1.83 149 1.83 150 1.83
                            75 2.11  45 2.11  49 2.11  25 2.11  46 2.11  30 2.11  44 2.98  70 2.98
  51  0.400  0.000  0.000- 151 1.83 155 1.83 171 1.83 175 1.83 176 1.83 180 1.83 196 1.83 200 1.83
                            26 2.11  71 2.11  76 2.11  52 2.11  55 2.11  56 2.11  30 2.98  31 2.98
  52  0.400  0.000  0.200- 152 1.83 172 1.83 177 1.83 197 1.83 176 1.83 171 1.83 196 1.83 151 1.83
                            27 2.11  53 2.11  51 2.11  57 2.11  72 2.11  77 2.11  28 2.98  32 2.98
  53  0.400  0.000  0.400- 152 1.83 153 1.83 172 1.83 173 1.83 177 1.83 178 1.83 197 1.83 198 1.83
                            28 2.11  52 2.11  54 2.11  58 2.11  73 2.11  78 2.11  27 2.98  33 2.98
  54  0.400  0.000  0.600- 153 1.83 154 1.83 173 1.83 174 1.83 178 1.83 179 1.83 198 1.83 199 1.83
                            29 2.11  55 2.11  53 2.11  59 2.11  74 2.11  79 2.11  30 2.98  34 2.98
  55  0.400  0.000  0.800- 154 1.83 174 1.83 179 1.83 199 1.83 155 1.83 180 1.83 175 1.83 200 1.83
                            30 2.11  54 2.11  51 2.11  60 2.11  75 2.11  80 2.11  29 2.98  35 2.98
  56  0.400  0.200  0.000- 156 1.83 160 1.83 181 1.83 185 1.83 176 1.83 180 1.83 151 1.83 155 1.83
                            31 2.11  61 2.11  57 2.11  60 2.11  51 2.11  81 2.11  36 2.98  65 2.98
  57  0.400  0.200  0.200- 157 1.83 182 1.83 152 1.83 177 1.83 181 1.83 156 1.83 176 1.83 151 1.83
                            62 2.11  32 2.11  58 2.11  82 2.11  52 2.11  56 2.11  33 2.98  37 2.98
  58  0.400  0.200  0.400- 157 1.83 158 1.83 182 1.83 183 1.83 177 1.83 178 1.83 152 1.83 153 1.83
                            63 2.11  33 2.11  57 2.11  83 2.11  59 2.11  53 2.11  32 2.98  62 2.98
  59  0.400  0.200  0.600- 158 1.83 159 1.83 183 1.83 184 1.83 178 1.83 179 1.83 153 1.83 154 1.83
                            64 2.11  34 2.11  60 2.11  84 2.11  54 2.11  58 2.11  35 2.98  39 2.98
  60  0.400  0.200  0.800- 159 1.83 184 1.83 160 1.83 179 1.83 154 1.83 185 1.83 155 1.83 180 1.83
                            65 2.11  35 2.11  59 2.11  85 2.11  55 2.11  56 2.11  34 2.98  64 2.98
  61  0.400  0.400  0.000- 156 1.83 160 1.83 161 1.83 165 1.83 181 1.83 185 1.83 186 1.83 190 1.83
                            36 2.11  56 2.11  62 2.11  65 2.11  66 2.11  86 2.11  31 2.98  37 2.98
  62  0.400  0.400  0.200- 157 1.83 162 1.83 182 1.83 187 1.83 181 1.83 161 1.83 186 1.83 156 1.83
                            63 2.11  37 2.11  57 2.11  87 2.11  61 2.11  67 2.11  38 2.98  32 2.98
  63  0.400  0.400  0.400- 157 1.83 158 1.83 162 1.83 163 1.83 182 1.83 183 1.83 187 1.83 188 1.83
                            62 2.11  38 2.11  58 2.11  88 2.11  64 2.11  68 2.11  33 2.98  57 2.98
  64  0.400  0.400  0.600- 158 1.83 159 1.83 163 1.83 164 1.83 183 1.83 184 1.83 188 1.83 189 1.83
                            65 2.11  39 2.11  59 2.11  89 2.11  63 2.11  69 2.11  40 2.98  34 2.98
  65  0.400  0.400  0.800- 159 1.83 164 1.83 184 1.83 189 1.83 160 1.83 185 1.83 165 1.83 190 1.83
                            64 2.11  40 2.11  60 2.11  90 2.11  61 2.11  70 2.11  35 2.98  59 2.98
  66  0.400  0.600  0.000- 161 1.83 165 1.83 166 1.83 170 1.83 186 1.83 190 1.83 191 1.83 195 1.83
                            41 2.11  71 2.11  67 2.11  70 2.11  61 2.11  91 2.11  46 2.98  75 2.98
  67  0.400  0.600  0.200- 162 1.83 167 1.83 187 1.83 192 1.83 186 1.83 166 1.83 191 1.83 161 1.83
                            72 2.11  42 2.11  68 2.11  92 2.11  62 2.11  66 2.11  43 2.98  47 2.98
  68  0.400  0.600  0.400- 162 1.83 163 1.83 167 1.83 168 1.83 187 1.83 188 1.83 192 1.83 193 1.83
                            73 2.11  43 2.11  67 2.11  93 2.11  69 2.11  63 2.11  42 2.98  72 2.98
  69  0.400  0.600  0.600- 163 1.83 164 1.83 168 1.83 169 1.83 188 1.83 189 1.83 193 1.83 194 1.83
                            74 2.11  44 2.11  70 2.11  94 2.11  64 2.11  68 2.11  45 2.98  49 2.98
  70  0.400  0.600  0.800- 164 1.83 169 1.83 189 1.83 194 1.83 165 1.83 190 1.83 170 1.83 195 1.83
                            75 2.11  45 2.11  69 2.11  95 2.11  65 2.11  66 2.11  44 2.98  74 2.98
  71  0.400  0.800  0.000- 166 1.83 170 1.83 191 1.83 195 1.83 171 1.83 175 1.83 196 1.83 200 1.83
                            46 2.11  66 2.11  51 2.11  72 2.11  75 2.11  96 2.11  41 2.98  26 2.98
  72  0.400  0.800  0.200- 167 1.83 192 1.83 172 1.83 191 1.83 166 1.83 197 1.83 196 1.83 171 1.83
                            73 2.11  47 2.11  67 2.11  97 2.11  71 2.11  52 2.11  68 2.98  42 2.98
  73  0.400  0.800  0.400- 167 1.83 168 1.83 192 1.83 193 1.83 172 1.83 173 1.83 197 1.83 198 1.83
                            72 2.11  48 2.11  68 2.11  98 2.11  53 2.11  74 2.11  43 2.98  47 2.98
  74  0.400  0.800  0.600- 168 1.83 169 1.83 193 1.83 194 1.83 173 1.83 174 1.83 198 1.83 199 1.83
                            75 2.11  49 2.11  69 2.11  99 2.11  73 2.11  54 2.11  70 2.98  44 2.98
  75  0.400  0.800  0.800- 169 1.83 194 1.83 174 1.83 170 1.83 195 1.83 199 1.83 175 1.83 200 1.83
                            74 2.11  50 2.11  70 2.11 100 2.11  71 2.11  55 2.11  45 2.98  49 2.98
  76  0.600  0.000  0.000- 176 1.83 180 1.83 196 1.83 200 1.83 201 1.83 205 1.83 221 1.83 225 1.83
                           101 2.11  96 2.11  51 2.11  77 2.11  80 2.11  81 2.11 102 2.98 105 2.98
  77  0.600  0.000  0.200- 177 1.83 197 1.83 202 1.83 222 1.83 201 1.83 196 1.83 221 1.83 176 1.83
                            78 2.11 102 2.11  52 2.11  82 2.11  97 2.11  76 2.11 103 2.98 122 2.98
  78  0.600  0.000  0.400- 177 1.83 178 1.83 197 1.83 198 1.83 202 1.83 203 1.83 222 1.83 223 1.83
                            77 2.11 103 2.11  79 2.11  83 2.11  98 2.11  53 2.11 102 2.98 123 2.98
  79  0.600  0.000  0.600- 178 1.83 179 1.83 198 1.83 199 1.83 203 1.83 204 1.83 223 1.83 224 1.83
                            80 2.11 104 2.11  54 2.11  84 2.11  99 2.11  78 2.11 105 2.98 124 2.98
  80  0.600  0.000  0.800- 179 1.83 199 1.83 204 1.83 224 1.83 180 1.83 205 1.83 200 1.83 225 1.83
                            79 2.11 105 2.11  55 2.11  85 2.11 100 2.11  76 2.11 104 2.98 125 2.98
  81  0.600  0.200  0.000- 181 1.83 185 1.83 206 1.83 210 1.83 201 1.83 205 1.83 176 1.83 180 1.83
                            86 2.11 106 2.11  82 2.11  85 2.11  56 2.11  76 2.11 111 2.98 110 2.98
  82  0.600  0.200  0.200- 182 1.83 207 1.83 177 1.83 202 1.83 206 1.83 181 1.83 201 1.83 176 1.83
                           107 2.11  83 2.11  87 2.11  81 2.11  57 2.11  77 2.11 112 2.98  88 2.98
  83  0.600  0.200  0.400- 182 1.83 183 1.83 207 1.83 208 1.83 202 1.83 203 1.83 177 1.83 178 1.83
                           108 2.11  82 2.11  88 2.11  58 2.11  84 2.11  78 2.11 113 2.98 107 2.98
  84  0.600  0.200  0.600- 183 1.83 184 1.83 208 1.83 209 1.83 203 1.83 204 1.83 178 1.83 179 1.83
                           109 2.11  85 2.11  89 2.11  83 2.11  59 2.11  79 2.11 114 2.98  90 2.98
  85  0.600  0.200  0.800- 184 1.83 209 1.83 185 1.83 204 1.83 179 1.83 210 1.83 180 1.83 205 1.83
                           110 2.11  84 2.11  90 2.11  81 2.11  60 2.11  80 2.11 115 2.98 109 2.98
  86  0.600  0.400  0.000- 181 1.83 185 1.83 186 1.83 190 1.83 206 1.83 210 1.83 211 1.83 215 1.83
                            81 2.11 111 2.11  87 2.11  90 2.11  91 2.11  61 2.11 106 2.98 115 2.98
  87  0.600  0.400  0.200- 182 1.83 187 1.83 207 1.83 212 1.83 206 1.83 186 1.83 211 1.83 181 1.83
                           112 2.11  82 2.11  88 2.11  86 2.11  62 2.11  92 2.11 113 2.98 107 2.98
  88  0.600  0.400  0.400- 182 1.83 183 1.83 187 1.83 188 1.83 207 1.83 208 1.83 212 1.83 213 1.83
                           113 2.11  83 2.11  87 2.11  63 2.11  89 2.11  93 2.11  82 2.98 108 2.98
  89  0.600  0.400  0.600- 183 1.83 184 1.83 188 1.83 189 1.83 208 1.83 209 1.83 213 1.83 214 1.83
                           114 2.11  84 2.11  90 2.11  88 2.11  64 2.11  94 2.11 115 2.98 109 2.98
  90  0.600  0.400  0.800- 184 1.83 189 1.83 209 1.83 214 1.83 185 1.83 210 1.83 190 1.83 215 1.83
                           115 2.11  85 2.11  89 2.11  86 2.11  65 2.11  95 2.11  84 2.98 110 2.98
  91  0.600  0.600  0.000- 186 1.83 190 1.83 191 1.83 195 1.83 211 1.83 215 1.83 216 1.83 220 1.83
                            96 2.11 116 2.11  92 2.11  95 2.11  66 2.11  86 2.11 121 2.98 120 2.98
  92  0.600  0.600  0.200- 187 1.83 192 1.83 212 1.83 217 1.83 211 1.83 191 1.83 216 1.83 186 1.83
                           117 2.11  93 2.11  97 2.11  91 2.11  67 2.11  87 2.11 122 2.98  98 2.98
  93  0.600  0.600  0.400- 187 1.83 188 1.83 192 1.83 193 1.83 212 1.83 213 1.83 217 1.83 218 1.83
                           118 2.11  92 2.11  98 2.11  68 2.11  94 2.11  88 2.11 123 2.98 117 2.98
  94  0.600  0.600  0.600- 188 1.83 189 1.83 193 1.83 194 1.83 213 1.83 214 1.83 218 1.83 219 1.83
                           119 2.11  95 2.11  99 2.11  93 2.11  69 2.11  89 2.11 124 2.98 100 2.98
  95  0.600  0.600  0.800- 189 1.83 194 1.83 214 1.83 219 1.83 190 1.83 215 1.83 195 1.83 220 1.83
                           120 2.11  94 2.11 100 2.11  91 2.11  70 2.11  90 2.11 125 2.98 119 2.98
  96  0.600  0.800  0.000- 191 1.83 195 1.83 216 1.83 220 1.83 196 1.83 200 1.83 221 1.83 225 1.83
                            91 2.11 121 2.11  71 2.11  97 2.11 100 2.11  76 2.11 116 2.98 122 2.98
  97  0.600  0.800  0.200- 192 1.83 217 1.83 197 1.83 216 1.83 191 1.83 222 1.83 221 1.83 196 1.83
                           122 2.11  92 2.11  98 2.11  72 2.11  96 2.11  77 2.11 123 2.98 117 2.98
  98  0.600  0.800  0.400- 192 1.83 193 1.83 217 1.83 218 1.83 197 1.83 198 1.83 222 1.83 223 1.83
                           123 2.11  93 2.11  97 2.11  73 2.11  78 2.11  99 2.11  92 2.98 118 2.98
  99  0.600  0.800  0.600- 193 1.83 194 1.83 218 1.83 219 1.83 198 1.83 199 1.83 223 1.83 224 1.83
                           124 2.11  94 2.11 100 2.11  74 2.11  98 2.11  79 2.11 125 2.98 119 2.98
 100  0.600  0.800  0.800- 194 1.83 219 1.83 199 1.83 195 1.83 220 1.83 224 1.83 200 1.83 225 1.83
                           125 2.11  95 2.11  99 2.11  75 2.11  96 2.11  80 2.11  94 2.98 120 2.98
 101  0.800  0.000  0.000- 201 1.83 205 1.83 221 1.83 225 1.83 226 1.83 230 1.83 246 1.83 250 1.83
                            76 2.11 106 2.11 121 2.11   1 2.11 102 2.11 105 2.11  77 2.98  80 2.98
 102  0.800  0.000  0.200- 202 1.83 222 1.83 221 1.83 201 1.83 227 1.83 247 1.83 246 1.83 226 1.83
                            77 2.11 103 2.11 101 2.11   2 2.11 107 2.11 122 2.11  78 2.98  76 2.98
 103  0.800  0.000  0.400- 202 1.83 203 1.83 222 1.83 223 1.83 227 1.83 228 1.83 247 1.83 248 1.83
                            78 2.11 102 2.11   3 2.11 104 2.11 108 2.11 123 2.11  77 2.98  79 2.98
 104  0.800  0.000  0.600- 203 1.83 204 1.83 223 1.83 224 1.83 228 1.83 229 1.83 248 1.83 249 1.83
                            79 2.11 105 2.11 103 2.11   4 2.11 109 2.11 124 2.11  80 2.98  78 2.98
 105  0.800  0.000  0.800- 204 1.83 224 1.83 205 1.83 225 1.83 229 1.83 249 1.83 230 1.83 250 1.83
                            80 2.11 104 2.11 101 2.11   5 2.11 110 2.11 125 2.11  79 2.98  76 2.98
 106  0.800  0.200  0.000- 206 1.83 210 1.83 201 1.83 205 1.83 231 1.83 235 1.83 226 1.83 230 1.83
                            81 2.11 111 2.11 101 2.11 107 2.11 110 2.11   6 2.11  86 2.98 112 2.98
 107  0.800  0.200  0.200- 207 1.83 206 1.83 202 1.83 232 1.83 201 1.83 231 1.83 227 1.83 226 1.83
                           112 2.11  82 2.11 108 2.11 102 2.11 106 2.11   7 2.11 113 2.98  83 2.98
 108  0.800  0.200  0.400- 207 1.83 208 1.83 202 1.83 203 1.83 232 1.83 233 1.83 227 1.83 228 1.83
                           113 2.11  83 2.11 107 2.11 103 2.11   8 2.11 109 2.11  88 2.98  82 2.98
 109  0.800  0.200  0.600- 208 1.83 209 1.83 203 1.83 204 1.83 233 1.83 234 1.83 228 1.83 229 1.83
                           114 2.11  84 2.11 110 2.11 104 2.11 108 2.11   9 2.11 115 2.98  85 2.98
 110  0.800  0.200  0.800- 209 1.83 204 1.83 210 1.83 234 1.83 205 1.83 229 1.83 235 1.83 230 1.83
                           115 2.11  85 2.11 109 2.11 105 2.11 106 2.11  10 2.11  90 2.98  84 2.98
 111  0.800  0.400  0.000- 206 1.83 210 1.83 211 1.83 215 1.83 231 1.83 235 1.83 236 1.83 240 1.83
                            86 2.11 106 2.11  11 2.11 112 2.11 115 2.11 116 2.11  81 2.98  91 2.98
 112  0.800  0.400  0.200- 207 1.83 212 1.83 211 1.83 206 1.83 232 1.83 237 1.83 236 1.83 231 1.83
                           113 2.11  87 2.11 107 2.11 117 2.11 111 2.11  12 2.11 108 2.98  88 2.98
 113  0.800  0.400  0.400- 207 1.83 208 1.83 212 1.83 213 1.83 232 1.83 233 1.83 237 1.83 238 1.83
                           112 2.11  88 2.11 108 2.11 118 2.11  13 2.11 114 2.11  87 2.98  83 2.98
 114  0.800  0.400  0.600- 208 1.83 209 1.83 213 1.83 214 1.83 233 1.83 234 1.83 238 1.83 239 1.83
                           115 2.11  89 2.11 109 2.11 119 2.11 113 2.11  14 2.11 110 2.98  90 2.98
 115  0.800  0.400  0.800- 209 1.83 214 1.83 210 1.83 215 1.83 234 1.83 239 1.83 235 1.83 240 1.83
                           114 2.11  90 2.11 110 2.11 120 2.11 111 2.11  15 2.11  89 2.98  85 2.98
 116  0.800  0.600  0.000- 211 1.83 215 1.83 216 1.83 220 1.83 236 1.83 240 1.83 241 1.83 245 1.83
                            91 2.11 121 2.11 111 2.11 117 2.11 120 2.11  16 2.11  96 2.98 122 2.98
 117  0.800  0.600  0.200- 212 1.83 217 1.83 216 1.83 211 1.83 237 1.83 242 1.83 241 1.83 236 1.83
                           122 2.11  92 2.11 118 2.11 112 2.11 116 2.11  17 2.11 123 2.98  93 2.98
 118  0.800  0.600  0.400- 212 1.83 213 1.83 217 1.83 218 1.83 237 1.83 238 1.83 242 1.83 243 1.83
                           123 2.11  93 2.11 117 2.11 113 2.11  18 2.11 119 2.11  98 2.98  92 2.98
 119  0.800  0.600  0.600- 213 1.83 214 1.83 218 1.83 219 1.83 238 1.83 239 1.83 243 1.83 244 1.83
                           124 2.11  94 2.11 120 2.11 114 2.11 118 2.11  19 2.11 125 2.98  95 2.98
 120  0.800  0.600  0.800- 214 1.83 219 1.83 215 1.83 220 1.83 239 1.83 244 1.83 240 1.83 245 1.83
                           125 2.11  95 2.11 119 2.11 115 2.11 116 2.11  20 2.11 100 2.98  94 2.98
 121  0.800  0.800  0.000- 216 1.83 220 1.83 221 1.83 225 1.83 241 1.83 245 1.83 246 1.83 250 1.83
                            96 2.11 116 2.11 101 2.11  21 2.11 122 2.11 125 2.11  91 2.98 100 2.98
 122  0.800  0.800  0.200- 217 1.83 216 1.83 222 1.83 242 1.83 221 1.83 241 1.83 247 1.83 246 1.83
                           123 2.11  97 2.11 117 2.11 102 2.11  22 2.11 121 2.11  98 2.98 118 2.98
 123  0.800  0.800  0.400- 217 1.83 218 1.83 222 1.83 223 1.83 242 1.83 243 1.83 247 1.83 248 1.83
                           122 2.11  98 2.11 118 2.11 124 2.11  23 2.11 103 2.11 117 2.98  93 2.98
 124  0.800  0.800  0.600- 218 1.83 219 1.83 223 1.83 224 1.83 243 1.83 244 1.83 248 1.83 249 1.83
                           125 2.11  99 2.11 119 2.11 104 2.11  24 2.11 123 2.11 100 2.98 120 2.98
 125  0.800  0.800  0.800- 219 1.83 220 1.83 224 1.83 244 1.83 225 1.83 245 1.83 249 1.83 250 1.83
                           124 2.11 100 2.11 120 2.11 105 2.11  25 2.11 121 2.11 119 2.98  95 2.98
 126  0.100  0.100  0.100-   1 1.83   2 1.83   6 1.83   7 1.83  26 1.83  27 1.83  31 1.83  32 1.83

 127  0.100  0.100  0.300-   2 1.83   7 1.83  27 1.83  32 1.83   3 1.83  28 1.83   8 1.83  33 1.83

 128  0.100  0.100  0.500-   3 1.83   4 1.83   8 1.83   9 1.83  28 1.83  29 1.83  33 1.83  34 1.83

 129  0.100  0.100  0.700-   5 1.83  10 1.83  30 1.83  35 1.83  29 1.83   9 1.83  34 1.83   4 1.83

 130  0.100  0.100  0.900-   1 1.83   5 1.83   6 1.83  10 1.83  26 1.83  30 1.83  31 1.83  35 1.83

 131  0.100  0.300  0.100-   6 1.83   7 1.83  31 1.83  32 1.83  11 1.83  12 1.83  36 1.83  37 1.83

 132  0.100  0.300  0.300-   7 1.83  32 1.83  12 1.83   8 1.83  33 1.83  37 1.83  13 1.83  38 1.83

 133  0.100  0.300  0.500-   8 1.83   9 1.83  33 1.83  34 1.83  13 1.83  14 1.83  38 1.83  39 1.83

 134  0.100  0.300  0.700-  10 1.83  35 1.83  15 1.83  34 1.83   9 1.83  40 1.83  39 1.83  14 1.83

 135  0.100  0.300  0.900-   6 1.83  10 1.83  31 1.83  35 1.83  11 1.83  15 1.83  36 1.83  40 1.83

 136  0.100  0.500  0.100-  11 1.83  12 1.83  16 1.83  17 1.83  36 1.83  37 1.83  41 1.83  42 1.83

 137  0.100  0.500  0.300-  12 1.83  17 1.83  37 1.83  42 1.83  13 1.83  38 1.83  18 1.83  43 1.83

 138  0.100  0.500  0.500-  13 1.83  14 1.83  18 1.83  19 1.83  38 1.83  39 1.83  43 1.83  44 1.83

 139  0.100  0.500  0.700-  15 1.83  20 1.83  40 1.83  45 1.83  39 1.83  19 1.83  44 1.83  14 1.83

 140  0.100  0.500  0.900-  11 1.83  15 1.83  16 1.83  20 1.83  36 1.83  40 1.83  41 1.83  45 1.83

 141  0.100  0.700  0.100-  21 1.83  22 1.83  46 1.83  47 1.83  41 1.83  42 1.83  16 1.83  17 1.83

 142  0.100  0.700  0.300-  22 1.83  47 1.83  23 1.83  42 1.83  17 1.83  48 1.83  18 1.83  43 1.83

 143  0.100  0.700  0.500-  23 1.83  24 1.83  48 1.83  49 1.83  43 1.83  44 1.83  18 1.83  19 1.83

 144  0.100  0.700  0.700-  25 1.83  50 1.83  20 1.83  45 1.83  49 1.83  24 1.83  44 1.83  19 1.83

 145  0.100  0.700  0.900-  21 1.83  25 1.83  46 1.83  50 1.83  41 1.83  45 1.83  16 1.83  20 1.83

 146  0.100  0.900  0.100-   1 1.83   2 1.83  21 1.83  22 1.83  26 1.83  27 1.83  46 1.83  47 1.83

 147  0.100  0.900  0.300-   2 1.83  22 1.83  27 1.83  47 1.83   3 1.83  28 1.83  23 1.83  48 1.83

 148  0.100  0.900  0.500-   3 1.83   4 1.83  23 1.83  24 1.83  28 1.83  29 1.83  48 1.83  49 1.83

 149  0.100  0.900  0.700-   5 1.83  25 1.83  30 1.83  50 1.83  29 1.83  24 1.83  49 1.83   4 1.83

 150  0.100  0.900  0.900-   1 1.83   5 1.83  21 1.83  25 1.83  26 1.83  30 1.83  46 1.83  50 1.83

 151  0.300  0.100  0.100-  26 1.83  27 1.83  31 1.83  32 1.83  51 1.83  52 1.83  56 1.83  57 1.83

 152  0.300  0.100  0.300-  27 1.83  32 1.83  28 1.83  33 1.83  52 1.83  57 1.83  53 1.83  58 1.83

 153  0.300  0.100  0.500-  28 1.83  29 1.83  33 1.83  34 1.83  53 1.83  54 1.83  58 1.83  59 1.83

 154  0.300  0.100  0.700-  30 1.83  35 1.83  34 1.83  29 1.83  55 1.83  60 1.83  59 1.83  54 1.83

 155  0.300  0.100  0.900-  26 1.83  30 1.83  31 1.83  35 1.83  51 1.83  55 1.83  56 1.83  60 1.83

 156  0.300  0.300  0.100-  31 1.83  32 1.83  36 1.83  37 1.83  56 1.83  57 1.83  61 1.83  62 1.83

 157  0.300  0.300  0.300-  32 1.83  33 1.83  37 1.83  57 1.83  38 1.83  58 1.83  62 1.83  63 1.83

 158  0.300  0.300  0.500-  33 1.83  34 1.83  38 1.83  39 1.83  58 1.83  59 1.83  63 1.83  64 1.83

 159  0.300  0.300  0.700-  35 1.83  34 1.83  40 1.83  60 1.83  39 1.83  59 1.83  65 1.83  64 1.83

 160  0.300  0.300  0.900-  31 1.83  35 1.83  36 1.83  40 1.83  56 1.83  60 1.83  61 1.83  65 1.83

 161  0.300  0.500  0.100-  36 1.83  37 1.83  41 1.83  42 1.83  61 1.83  62 1.83  66 1.83  67 1.83

 162  0.300  0.500  0.300-  37 1.83  42 1.83  38 1.83  43 1.83  62 1.83  67 1.83  63 1.83  68 1.83

 163  0.300  0.500  0.500-  38 1.83  39 1.83  43 1.83  44 1.83  63 1.83  64 1.83  68 1.83  69 1.83

 164  0.300  0.500  0.700-  40 1.83  45 1.83  44 1.83  39 1.83  65 1.83  70 1.83  69 1.83  64 1.83

 165  0.300  0.500  0.900-  36 1.83  40 1.83  41 1.83  45 1.83  61 1.83  65 1.83  66 1.83  70 1.83

 166  0.300  0.700  0.100-  46 1.83  47 1.83  41 1.83  42 1.83  71 1.83  72 1.83  66 1.83  67 1.83

 167  0.300  0.700  0.300-  47 1.83  42 1.83  48 1.83  72 1.83  43 1.83  67 1.83  73 1.83  68 1.83

 168  0.300  0.700  0.500-  48 1.83  49 1.83  43 1.83  44 1.83  73 1.83  74 1.83  68 1.83  69 1.83

 169  0.300  0.700  0.700-  50 1.83  49 1.83  45 1.83  75 1.83  44 1.83  74 1.83  70 1.83  69 1.83

 170  0.300  0.700  0.900-  46 1.83  50 1.83  41 1.83  45 1.83  71 1.83  75 1.83  66 1.83  70 1.83

 171  0.300  0.900  0.100-  26 1.83  27 1.83  46 1.83  47 1.83  51 1.83  52 1.83  71 1.83  72 1.83

 172  0.300  0.900  0.300-  27 1.83  47 1.83  28 1.83  48 1.83  52 1.83  72 1.83  53 1.83  73 1.83

 173  0.300  0.900  0.500-  28 1.83  29 1.83  48 1.83  49 1.83  53 1.83  54 1.83  73 1.83  74 1.83

 174  0.300  0.900  0.700-  30 1.83  50 1.83  49 1.83  29 1.83  55 1.83  75 1.83  74 1.83  54 1.83

 175  0.300  0.900  0.900-  26 1.83  30 1.83  46 1.83  50 1.83  51 1.83  55 1.83  71 1.83  75 1.83

 176  0.500  0.100  0.100-  51 1.83  52 1.83  56 1.83  57 1.83  76 1.83  77 1.83  81 1.83  82 1.83

 177  0.500  0.100  0.300-  52 1.83  57 1.83  77 1.83  82 1.83  53 1.83  78 1.83  58 1.83  83 1.83

 178  0.500  0.100  0.500-  53 1.83  54 1.83  58 1.83  59 1.83  78 1.83  79 1.83  83 1.83  84 1.83

 179  0.500  0.100  0.700-  55 1.83  60 1.83  80 1.83  85 1.83  79 1.83  59 1.83  84 1.83  54 1.83

 180  0.500  0.100  0.900-  51 1.83  55 1.83  56 1.83  60 1.83  76 1.83  80 1.83  81 1.83  85 1.83

 181  0.500  0.300  0.100-  56 1.83  57 1.83  81 1.83  82 1.83  61 1.83  62 1.83  86 1.83  87 1.83

 182  0.500  0.300  0.300-  57 1.83  82 1.83  62 1.83  58 1.83  83 1.83  87 1.83  63 1.83  88 1.83

 183  0.500  0.300  0.500-  58 1.83  59 1.83  83 1.83  84 1.83  63 1.83  64 1.83  88 1.83  89 1.83

 184  0.500  0.300  0.700-  60 1.83  85 1.83  65 1.83  84 1.83  59 1.83  90 1.83  89 1.83  64 1.83

 185  0.500  0.300  0.900-  56 1.83  60 1.83  81 1.83  85 1.83  61 1.83  65 1.83  86 1.83  90 1.83

 186  0.500  0.500  0.100-  61 1.83  62 1.83  66 1.83  67 1.83  86 1.83  87 1.83  91 1.83  92 1.83

 187  0.500  0.500  0.300-  62 1.83  67 1.83  87 1.83  92 1.83  63 1.83  88 1.83  68 1.83  93 1.83

 188  0.500  0.500  0.500-  63 1.83  64 1.83  68 1.83  69 1.83  88 1.83  89 1.83  93 1.83  94 1.83

 189  0.500  0.500  0.700-  65 1.83  70 1.83  90 1.83  95 1.83  89 1.83  69 1.83  94 1.83  64 1.83

 190  0.500  0.500  0.900-  61 1.83  65 1.83  66 1.83  70 1.83  86 1.83  90 1.83  91 1.83  95 1.83

 191  0.500  0.700  0.100-  71 1.83  72 1.83  96 1.83  97 1.83  91 1.83  92 1.83  66 1.83  67 1.83

 192  0.500  0.700  0.300-  72 1.83  97 1.83  73 1.83  92 1.83  67 1.83  98 1.83  68 1.83  93 1.83

 193  0.500  0.700  0.500-  73 1.83  74 1.83  98 1.83  99 1.83  93 1.83  94 1.83  68 1.83  69 1.83

 194  0.500  0.700  0.700-  75 1.83 100 1.83  70 1.83  95 1.83  99 1.83  74 1.83  94 1.83  69 1.83

 195  0.500  0.700  0.900-  71 1.83  75 1.83  96 1.83 100 1.83  91 1.83  95 1.83  66 1.83  70 1.83

 196  0.500  0.900  0.100-  51 1.83  52 1.83  71 1.83  72 1.83  76 1.83  77 1.83  96 1.83  97 1.83

 197  0.500  0.900  0.300-  52 1.83  72 1.83  77 1.83  97 1.83  53 1.83  78 1.83  73 1.83  98 1.83

 198  0.500  0.900  0.500-  53 1.83  54 1.83  73 1.83  74 1.83  78 1.83  79 1.83  98 1.83  99 1.83

 199  0.500  0.900  0.700-  55 1.83  75 1.83  80 1.83 100 1.83  79 1.83  74 1.83  99 1.83  54 1.83

 200  0.500  0.900  0.900-  51 1.83  55 1.83  71 1.83  75 1.83  76 1.83  80 1.83  96 1.83 100 1.83

 201  0.700  0.100  0.100- 101 1.83 102 1.83 106 1.83 107 1.83  76 1.83  77 1.83  81 1.83  82 1.83

 202  0.700  0.100  0.300- 102 1.83 107 1.83 103 1.83 108 1.83  77 1.83  82 1.83  78 1.83  83 1.83

 203  0.700  0.100  0.500- 103 1.83 104 1.83 108 1.83 109 1.83  78 1.83  79 1.83  83 1.83  84 1.83

 204  0.700  0.100  0.700- 105 1.83 110 1.83 109 1.83 104 1.83  80 1.83  85 1.83  84 1.83  79 1.83

 205  0.700  0.100  0.900- 101 1.83 105 1.83 106 1.83 110 1.83  76 1.83  80 1.83  81 1.83  85 1.83

 206  0.700  0.300  0.100- 106 1.83 107 1.83 111 1.83 112 1.83  81 1.83  82 1.83  86 1.83  87 1.83

 207  0.700  0.300  0.300- 107 1.83  82 1.83 108 1.83 112 1.83 113 1.83  83 1.83  87 1.83  88 1.83

 208  0.700  0.300  0.500- 108 1.83 109 1.83 113 1.83 114 1.83  83 1.83  84 1.83  88 1.83  89 1.83

 209  0.700  0.300  0.700- 110 1.83 109 1.83  85 1.83 115 1.83 114 1.83  84 1.83  90 1.83  89 1.83

 210  0.700  0.300  0.900- 106 1.83 110 1.83 111 1.83 115 1.83  81 1.83  85 1.83  86 1.83  90 1.83

 211  0.700  0.500  0.100- 111 1.83 112 1.83 116 1.83 117 1.83  86 1.83  87 1.83  91 1.83  92 1.83

 212  0.700  0.500  0.300- 112 1.83 117 1.83 113 1.83 118 1.83  87 1.83  92 1.83  88 1.83  93 1.83

 213  0.700  0.500  0.500- 113 1.83 114 1.83 118 1.83 119 1.83  88 1.83  89 1.83  93 1.83  94 1.83

 214  0.700  0.500  0.700- 115 1.83 120 1.83 119 1.83 114 1.83  90 1.83  95 1.83  94 1.83  89 1.83

 215  0.700  0.500  0.900- 111 1.83 115 1.83 116 1.83 120 1.83  86 1.83  90 1.83  91 1.83  95 1.83

 216  0.700  0.700  0.100- 121 1.83 122 1.83 116 1.83 117 1.83  96 1.83  97 1.83  91 1.83  92 1.83

 217  0.700  0.700  0.300- 122 1.83 117 1.83  97 1.83 123 1.83 118 1.83  92 1.83  98 1.83  93 1.83

 218  0.700  0.700  0.500- 123 1.83 124 1.83 118 1.83 119 1.83  98 1.83  99 1.83  93 1.83  94 1.83

 219  0.700  0.700  0.700- 125 1.83 120 1.83 124 1.83 100 1.83 119 1.83  99 1.83  95 1.83  94 1.83

 220  0.700  0.700  0.900- 121 1.83 125 1.83 116 1.83 120 1.83  96 1.83 100 1.83  91 1.83  95 1.83

 221  0.700  0.900  0.100- 101 1.83 102 1.83 121 1.83 122 1.83  76 1.83  77 1.83  96 1.83  97 1.83

 222  0.700  0.900  0.300- 102 1.83 122 1.83 103 1.83 123 1.83  77 1.83  97 1.83  78 1.83  98 1.83

 223  0.700  0.900  0.500- 103 1.83 104 1.83 123 1.83 124 1.83  78 1.83  79 1.83  98 1.83  99 1.83

 224  0.700  0.900  0.700- 105 1.83 125 1.83 124 1.83 104 1.83  80 1.83 100 1.83  99 1.83  79 1.83

 225  0.700  0.900  0.900- 101 1.83 105 1.83 121 1.83 125 1.83  76 1.83  80 1.83  96 1.83 100 1.83

 226  0.900  0.100  0.100-   1 1.83   2 1.83   6 1.83   7 1.83 101 1.83 102 1.83 106 1.83 107 1.83

 227  0.900  0.100  0.300-   2 1.83   7 1.83 102 1.83 107 1.83   3 1.83 103 1.83   8 1.83 108 1.83

 228  0.900  0.100  0.500-   3 1.83   4 1.83   8 1.83   9 1.83 103 1.83 104 1.83 108 1.83 109 1.83

 229  0.900  0.100  0.700-   5 1.83  10 1.83 105 1.83 110 1.83 104 1.83   9 1.83 109 1.83   4 1.83

 230  0.900  0.100  0.900-   1 1.83   5 1.83   6 1.83  10 1.83 101 1.83 105 1.83 106 1.83 110 1.83

 231  0.900  0.300  0.100-   6 1.83   7 1.83 106 1.83 107 1.83  11 1.83  12 1.83 111 1.83 112 1.83

 232  0.900  0.300  0.300-   7 1.83 107 1.83  12 1.83   8 1.83 108 1.83 112 1.83  13 1.83 113 1.83

 233  0.900  0.300  0.500-   8 1.83   9 1.83 108 1.83 109 1.83  13 1.83  14 1.83 113 1.83 114 1.83

 234  0.900  0.300  0.700-  10 1.83 110 1.83  15 1.83 109 1.83   9 1.83 115 1.83 114 1.83  14 1.83

 235  0.900  0.300  0.900-   6 1.83  10 1.83 106 1.83 110 1.83  11 1.83  15 1.83 111 1.83 115 1.83

 236  0.900  0.500  0.100-  11 1.83  12 1.83  16 1.83  17 1.83 111 1.83 112 1.83 116 1.83 117 1.83

 237  0.900  0.500  0.300-  12 1.83  17 1.83 112 1.83 117 1.83  13 1.83 113 1.83  18 1.83 118 1.83

 238  0.900  0.500  0.500-  13 1.83  14 1.83  18 1.83  19 1.83 113 1.83 114 1.83 118 1.83 119 1.83

 239  0.900  0.500  0.700-  15 1.83  20 1.83 115 1.83 120 1.83 114 1.83  19 1.83 119 1.83  14 1.83

 240  0.900  0.500  0.900-  11 1.83  15 1.83  16 1.83  20 1.83 111 1.83 115 1.83 116 1.83 120 1.83

 241  0.900  0.700  0.100-  21 1.83  22 1.83 121 1.83 122 1.83 116 1.83 117 1.83  16 1.83  17 1.83

 242  0.900  0.700  0.300-  22 1.83 122 1.83  23 1.83 117 1.83  17 1.83 123 1.83  18 1.83 118 1.83

 243  0.900  0.700  0.500-  23 1.83  24 1.83 123 1.83 124 1.83 118 1.83 119 1.83  18 1.83  19 1.83

 244  0.900  0.700  0.700-  25 1.83 125 1.83  20 1.83 120 1.83 124 1.83  24 1.83 119 1.83  19 1.83

 245  0.900  0.700  0.900-  21 1.83  25 1.83 121 1.83 125 1.83 116 1.83 120 1.83  16 1.83  20 1.83

 246  0.900  0.900  0.100-   1 1.83   2 1.83  21 1.83  22 1.83 101 1.83 102 1.83 121 1.83 122 1.83

 247  0.900  0.900  0.300-   2 1.83  22 1.83 102 1.83 122 1.83   3 1.83 103 1.83  23 1.83 123 1.83

 248  0.900  0.900  0.500-   3 1.83   4 1.83  23 1.83  24 1.83 103 1.83 104 1.83 123 1.83 124 1.83

 249  0.900  0.900  0.700-   5 1.83  25 1.83 105 1.83 125 1.83 104 1.83  24 1.83 124 1.83   4 1.83

 250  0.900  0.900  0.900-   1 1.83   5 1.83  21 1.83  25 1.83 101 1.83 105 1.83 121 1.83 125 1.83

 
  LATTYP: Found a simple cubic cell.
 ALAT       =    10.5415000000
  
  Lattice vectors:
  
 A1 = (  10.5415000000,   0.0000000000,   0.0000000000)
 A2 = (   0.0000000000,  10.5415000000,   0.0000000000)
 A3 = (   0.0000000000,   0.0000000000,  10.5415000000)


Analysis of symmetry for initial positions (statically):
=====================================================================
 Subroutine PRICEL returns following result:
 
  LATTYP: Found a simple cubic cell.
 ALAT       =     2.1083000000
  
  Lattice vectors:
  
 A1 = (   2.1083000000,   0.0000000000,   0.0000000000)
 A2 = (   0.0000000000,   2.1083000000,   0.0000000000)
 A3 = (   0.0000000000,   0.0000000000,   2.1083000000)
 
 125 primitive cells build up your supercell.
 

 Routine SETGRP: Setting up the symmetry group for a 
 simple cubic supercell.


 Subroutine GETGRP returns: Found 48 space group operations
 (whereof 48 operations were pure point group operations)
 out of a pool of 48 trial point group operations.


The static configuration has the point symmetry O_h .


Analysis of symmetry for dynamics (positions and initial velocities):
=====================================================================
 Subroutine PRICEL returns following result:
 
  LATTYP: Found a simple cubic cell.
 ALAT       =     2.1083000000
  
  Lattice vectors:
  
 A1 = (   2.1083000000,   0.0000000000,   0.0000000000)
 A2 = (   0.0000000000,   2.1083000000,   0.0000000000)
 A3 = (   0.0000000000,   0.0000000000,   2.1083000000)
 
 125 primitive cells build up your supercell.
 

 Routine SETGRP: Setting up the symmetry group for a 
 simple cubic supercell.


 Subroutine GETGRP returns: Found 48 space group operations
 (whereof 48 operations were pure point group operations)
 out of a pool of 48 trial point group operations.


The dynamic configuration has the point symmetry O_h .


Analysis of structural, dynamic, and magnetic symmetry:
=====================================================================
 Subroutine PRICEL returns:
 Original cell was already a primitive cell.
 

 Routine SETGRP: Setting up the symmetry group for a 
 simple cubic supercell.


 Subroutine GETGRP returns: Found 48 space group operations
 (whereof  6 operations were pure point group operations)
 out of a pool of 48 trial point group operations.


The overall configuration has the point symmetry C_3v.
 The point group associated with its full space group is O_h .


 Subroutine INISYM returns: Found 48 space group operations
 (whereof  6 operations are pure point group operations),
 and found     1 'primitive' translations


----------------------------------------------------------------------------------------

                                     Primitive cell                                     

  volume of cell :    1171.4054

  direct lattice vectors                    reciprocal lattice vectors
    10.541500000  0.000000000  0.000000000     0.094863160  0.000000000  0.000000000
     0.000000000 10.541500000  0.000000000     0.000000000  0.094863160  0.000000000
     0.000000000  0.000000000 10.541500000     0.000000000  0.000000000  0.094863160

  length of vectors
    10.541500000 10.541500000 10.541500000     0.094863160  0.094863160  0.094863160

  position of ions in fractional coordinates (direct lattice)
     0.000000000  0.000000000  0.000000000
     0.000000000  0.000000000  0.200000000
     0.000000000  0.000000000  0.400000000
     0.000000000  0.000000000  0.600000000
     0.000000000  0.000000000  0.800000000
     0.000000000  0.200000000  0.000000000
     0.000000000  0.200000000  0.200000000
     0.000000000  0.200000000  0.400000000
     0.000000000  0.200000000  0.600000000
     0.000000000  0.200000000  0.800000000
     0.000000000  0.400000000  0.000000000
     0.000000000  0.400000000  0.200000000
     0.000000000  0.400000000  0.400000000
     0.000000000  0.400000000  0.600000000
     0.000000000  0.400000000  0.800000000
     0.000000000  0.600000000  0.000000000
     0.000000000  0.600000000  0.200000000
     0.000000000  0.600000000  0.400000000
     0.000000000  0.600000000  0.600000000
     0.000000000  0.600000000  0.800000000
     0.000000000  0.800000000  0.000000000
     0.000000000  0.800000000  0.200000000
     0.000000000  0.800000000  0.400000000
     0.000000000  0.800000000  0.600000000
     0.000000000  0.800000000  0.800000000
     0.200000000  0.000000000  0.000000000
     0.200000000  0.000000000  0.200000000
     0.200000000  0.000000000  0.400000000
     0.200000000  0.000000000  0.600000000
     0.200000000  0.000000000  0.800000000
     0.200000000  0.200000000  0.000000000
     0.200000000  0.200000000  0.200000000
     0.200000000  0.200000000  0.400000000
     0.200000000  0.200000000  0.600000000
     0.200000000  0.200000000  0.800000000
     0.200000000  0.400000000  0.000000000
     0.200000000  0.400000000  0.200000000
     0.200000000  0.400000000  0.400000000
     0.200000000  0.400000000  0.600000000
     0.200000000  0.400000000  0.800000000
     0.200000000  0.600000000  0.000000000
     0.200000000  0.600000000  0.200000000
     0.200000000  0.600000000  0.400000000
     0.200000000  0.600000000  0.600000000
     0.200000000  0.600000000  0.800000000
     0.200000000  0.800000000  0.000000000
     0.200000000  0.800000000  0.200000000
     0.200000000  0.800000000  0.400000000
     0.200000000  0.800000000  0.600000000
     0.200000000  0.800000000  0.800000000
     0.400000000  0.000000000  0.000000000
     0.400000000  0.000000000  0.200000000
     0.400000000  0.000000000  0.400000000
     0.400000000  0.000000000  0.600000000
     0.400000000  0.000000000  0.800000000
     0.400000000  0.200000000  0.000000000
     0.400000000  0.200000000  0.200000000
     0.400000000  0.200000000  0.400000000
     0.400000000  0.200000000  0.600000000
     0.400000000  0.200000000  0.800000000
     0.400000000  0.400000000  0.000000000
     0.400000000  0.400000000  0.200000000
     0.400000000  0.400000000  0.400000000
     0.400000000  0.400000000  0.600000000
     0.400000000  0.400000000  0.800000000
     0.400000000  0.600000000  0.000000000
     0.400000000  0.600000000  0.200000000
     0.400000000  0.600000000  0.400000000
     0.400000000  0.600000000  0.600000000
     0.400000000  0.600000000  0.800000000
     0.400000000  0.800000000  0.000000000
     0.400000000  0.800000000  0.200000000
     0.400000000  0.800000000  0.400000000
     0.400000000  0.800000000  0.600000000
     0.400000000  0.800000000  0.800000000
     0.600000000  0.000000000  0.000000000
     0.600000000  0.000000000  0.200000000
     0.600000000  0.000000000  0.400000000
     0.600000000  0.000000000  0.600000000
     0.600000000  0.000000000  0.800000000
     0.600000000  0.200000000  0.000000000
     0.600000000  0.200000000  0.200000000
     0.600000000  0.200000000  0.400000000
     0.600000000  0.200000000  0.600000000
     0.600000000  0.200000000  0.800000000
     0.600000000  0.400000000  0.000000000
     0.600000000  0.400000000  0.200000000
     0.600000000  0.400000000  0.400000000
     0.600000000  0.400000000  0.600000000
     0.600000000  0.400000000  0.800000000
     0.600000000  0.600000000  0.000000000
     0.600000000  0.600000000  0.200000000
     0.600000000  0.600000000  0.400000000
     0.600000000  0.600000000  0.600000000
     0.600000000  0.600000000  0.800000000
     0.600000000  0.800000000  0.000000000
     0.600000000  0.800000000  0.200000000
     0.600000000  0.800000000  0.400000000
     0.600000000  0.800000000  0.600000000
     0.600000000  0.800000000  0.800000000
     0.800000000  0.000000000  0.000000000
     0.800000000  0.000000000  0.200000000
     0.800000000  0.000000000  0.400000000
     0.800000000  0.000000000  0.600000000
     0.800000000  0.000000000  0.800000000
     0.800000000  0.200000000  0.000000000
     0.800000000  0.200000000  0.200000000
     0.800000000  0.200000000  0.400000000
     0.800000000  0.200000000  0.600000000
     0.800000000  0.200000000  0.800000000
     0.800000000  0.400000000  0.000000000
     0.800000000  0.400000000  0.200000000
     0.800000000  0.400000000  0.400000000
     0.800000000  0.400000000  0.600000000
     0.800000000  0.400000000  0.800000000
     0.800000000  0.600000000  0.000000000
     0.800000000  0.600000000  0.200000000
     0.800000000  0.600000000  0.400000000
     0.800000000  0.600000000  0.600000000
     0.800000000  0.600000000  0.800000000
     0.800000000  0.800000000  0.000000000
     0.800000000  0.800000000  0.200000000
     0.800000000  0.800000000  0.400000000
     0.800000000  0.800000000  0.600000000
     0.800000000  0.800000000  0.800000000
     0.100000000  0.100000000  0.100000000
     0.100000000  0.100000000  0.300000000
     0.100000000  0.100000000  0.500000000
     0.100000000  0.100000000  0.700000000
     0.100000000  0.100000000  0.900000000
     0.100000000  0.300000000  0.100000000
     0.100000000  0.300000000  0.300000000
     0.100000000  0.300000000  0.500000000
     0.100000000  0.300000000  0.700000000
     0.100000000  0.300000000  0.900000000
     0.100000000  0.500000000  0.100000000
     0.100000000  0.500000000  0.300000000
     0.100000000  0.500000000  0.500000000
     0.100000000  0.500000000  0.700000000
     0.100000000  0.500000000  0.900000000
     0.100000000  0.700000000  0.100000000
     0.100000000  0.700000000  0.300000000
     0.100000000  0.700000000  0.500000000
     0.100000000  0.700000000  0.700000000
     0.100000000  0.700000000  0.900000000
     0.100000000  0.900000000  0.100000000
     0.100000000  0.900000000  0.300000000
     0.100000000  0.900000000  0.500000000
     0.100000000  0.900000000  0.700000000
     0.100000000  0.900000000  0.900000000
     0.300000000  0.100000000  0.100000000
     0.300000000  0.100000000  0.300000000
     0.300000000  0.100000000  0.500000000
     0.300000000  0.100000000  0.700000000
     0.300000000  0.100000000  0.900000000
     0.300000000  0.300000000  0.100000000
     0.300000000  0.300000000  0.300000000
     0.300000000  0.300000000  0.500000000
     0.300000000  0.300000000  0.700000000
     0.300000000  0.300000000  0.900000000
     0.300000000  0.500000000  0.100000000
     0.300000000  0.500000000  0.300000000
     0.300000000  0.500000000  0.500000000
     0.300000000  0.500000000  0.700000000
     0.300000000  0.500000000  0.900000000
     0.300000000  0.700000000  0.100000000
     0.300000000  0.700000000  0.300000000
     0.300000000  0.700000000  0.500000000
     0.300000000  0.700000000  0.700000000
     0.300000000  0.700000000  0.900000000
     0.300000000  0.900000000  0.100000000
     0.300000000  0.900000000  0.300000000
     0.300000000  0.900000000  0.500000000
     0.300000000  0.900000000  0.700000000
     0.300000000  0.900000000  0.900000000
     0.500000000  0.100000000  0.100000000
     0.500000000  0.100000000  0.300000000
     0.500000000  0.100000000  0.500000000
     0.500000000  0.100000000  0.700000000
     0.500000000  0.100000000  0.900000000
     0.500000000  0.300000000  0.100000000
     0.500000000  0.300000000  0.300000000
     0.500000000  0.300000000  0.500000000
     0.500000000  0.300000000  0.700000000
     0.500000000  0.300000000  0.900000000
     0.500000000  0.500000000  0.100000000
     0.500000000  0.500000000  0.300000000
     0.500000000  0.500000000  0.500000000
     0.500000000  0.500000000  0.700000000
     0.500000000  0.500000000  0.900000000
     0.500000000  0.700000000  0.100000000
     0.500000000  0.700000000  0.300000000
     0.500000000  0.700000000  0.500000000
     0.500000000  0.700000000  0.700000000
     0.500000000  0.700000000  0.900000000
     0.500000000  0.900000000  0.100000000
     0.500000000  0.900000000  0.300000000
     0.500000000  0.900000000  0.500000000
     0.500000000  0.900000000  0.700000000
     0.500000000  0.900000000  0.900000000
     0.700000000  0.100000000  0.100000000
     0.700000000  0.100000000  0.300000000
     0.700000000  0.100000000  0.500000000
     0.700000000  0.100000000  0.700000000
     0.700000000  0.100000000  0.900000000
     0.700000000  0.300000000  0.100000000
     0.700000000  0.300000000  0.300000000
     0.700000000  0.300000000  0.500000000
     0.700000000  0.300000000  0.700000000
     0.700000000  0.300000000  0.900000000
     0.700000000  0.500000000  0.100000000
     0.700000000  0.500000000  0.300000000
     0.700000000  0.500000000  0.500000000
     0.700000000  0.500000000  0.700000000
     0.700000000  0.500000000  0.900000000
     0.700000000  0.700000000  0.100000000
     0.700000000  0.700000000  0.300000000
     0.700000000  0.700000000  0.500000000
     0.700000000  0.700000000  0.700000000
     0.700000000  0.700000000  0.900000000
     0.700000000  0.900000000  0.100000000
     0.700000000  0.900000000  0.300000000
     0.700000000  0.900000000  0.500000000
     0.700000000  0.900000000  0.700000000
     0.700000000  0.900000000  0.900000000
     0.900000000  0.100000000  0.100000000
     0.900000000  0.100000000  0.300000000
     0.900000000  0.100000000  0.500000000
     0.900000000  0.100000000  0.700000000
     0.900000000  0.100000000  0.900000000
     0.900000000  0.300000000  0.100000000
     0.900000000  0.300000000  0.300000000
     0.900000000  0.300000000  0.500000000
     0.900000000  0.300000000  0.700000000
     0.900000000  0.300000000  0.900000000
     0.900000000  0.500000000  0.100000000
     0.900000000  0.500000000  0.300000000
     0.900000000  0.500000000  0.500000000
     0.900000000  0.500000000  0.700000000
     0.900000000  0.500000000  0.900000000
     0.900000000  0.700000000  0.100000000
     0.900000000  0.700000000  0.300000000
     0.900000000  0.700000000  0.500000000
     0.900000000  0.700000000  0.700000000
     0.900000000  0.700000000  0.900000000
     0.900000000  0.900000000  0.100000000
     0.900000000  0.900000000  0.300000000
     0.900000000  0.900000000  0.500000000
     0.900000000  0.900000000  0.700000000
     0.900000000  0.900000000  0.900000000

  ion indices of the primitive-cell ions
   primitive index   ion index
                 1           1
                 2           2
                 3           3
                 4           4
                 5           5
                 6           6
                 7           7
                 8           8
                 9           9
                10          10
                11          11
                12          12
                13          13
                14          14
                15          15
                16          16
                17          17
                18          18
                19          19
                20          20
                21          21
                22          22
                23          23
                24          24
                25          25
                26          26
                27          27
                28          28
                29          29
                30          30
                31          31
                32          32
                33          33
                34          34
                35          35
                36          36
                37          37
                38          38
                39          39
                40          40
                41          41
                42          42
                43          43
                44          44
                45          45
                46          46
                47          47
                48          48
                49          49
                50          50
                51          51
                52          52
                53          53
                54          54
                55          55
                56          56
                57          57
                58          58
                59          59
                60          60
                61          61
                62          62
                63          63
                64          64
                65          65
                66          66
                67          67
                68          68
                69          69
                70          70
                71          71
                72          72
                73          73
                74          74
                75          75
                76          76
                77          77
                78          78
                79          79
                80          80
                81          81
                82          82
                83          83
                84          84
                85          85
                86          86
                87          87
                88          88
                89          89
                90          90
                91          91
                92          92
                93          93
                94          94
                95          95
                96          96
                97          97
                98          98
                99          99
               100         100
               101         101
               102         102
               103         103
               104         104
               105         105
               106         106
               107         107
               108         108
               109         109
               110         110
               111         111
               112         112
               113         113
               114         114
               115         115
               116         116
               117         117
               118         118
               119         119
               120         120
               121         121
               122         122
               123         123
               124         124
               125         125
               126         126
               127         127
               128         128
               129         129
               130         130
               131         131
               132         132
               133         133
               134         134
               135         135
               136         136
               137         137
               138         138
               139         139
               140         140
               141         141
               142         142
               143         143
               144         144
               145         145
               146         146
               147         147
               148         148
               149         149
               150         150
               151         151
               152         152
               153         153
               154         154
               155         155
               156         156
               157         157
               158         158
               159         159
               160         160
               161         161
               162         162
               163         163
               164         164
               165         165
               166         166
               167         167
               168         168
               169         169
               170         170
               171         171
               172         172
               173         173
               174         174
               175         175
               176         176
               177         177
               178         178
               179         179
               180         180
               181         181
               182         182
               183         183
               184         184
               185         185
               186         186
               187         187
               188         188
               189         189
               190         190
               191         191
               192         192
               193         193
               194         194
               195         195
               196         196
               197         197
               198         198
               199         199
               200         200
               201         201
               202         202
               203         203
               204         204
               205         205
               206         206
               207         207
               208         208
               209         209
               210         210
               211         211
               212         212
               213         213
               214         214
               215         215
               216         216
               217         217
               218         218
               219         219
               220         220
               221         221
               222         222
               223         223
               224         224
               225         225
               226         226
               227         227
               228         228
               229         229
               230         230
               231         231
               232         232
               233         233
               234         234
               235         235
               236         236
               237         237
               238         238
               239         239
               240         240
               241         241
               242         242
               243         243
               244         244
               245         245
               246         246
               247         247
               248         248
               249         249
               250         250

----------------------------------------------------------------------------------------

 
 
 KPOINTS: Automatic generation                    

Automatic generation of k-mesh.
 Grid dimensions read from file:
 generate k-points for:    2    2    2

 Generating k-lattice:

  Cartesian coordinates                     Fractional coordinates (reciprocal lattice)
     0.047431580  0.000000000  0.000000000     0.500000000  0.000000000  0.000000000
     0.000000000  0.047431580  0.000000000     0.000000000  0.500000000  0.000000000
     0.000000000  0.000000000  0.047431580     0.000000000  0.000000000  0.500000000

  Length of vectors
     0.047431580  0.047431580  0.047431580

  Shift w.r.t. Gamma in fractional coordinates (k-lattice)
     0.000000000  0.000000000  0.000000000

 
 Subroutine IBZKPT returns following result:
 ===========================================
 
 Found      4 irreducible k-points:
 
 Following reciprocal coordinates:
            Coordinates               Weight
  0.000000  0.000000  0.000000      1.000000
  0.500000  0.000000  0.000000      3.000000
  0.500000  0.500000  0.000000      3.000000
  0.500000  0.500000  0.500000      1.000000
 
 Following cartesian coordinates:
            Coordinates               Weight
  0.000000  0.000000  0.000000      1.000000
  0.047432  0.000000  0.000000      3.000000
  0.047432  0.047432  0.000000      3.000000
  0.047432  0.047432  0.047432      1.000000
 


--------------------------------------------------------------------------------------------------------




 Dimension of arrays:
   k-points           NKPTS =      4   k-points in BZ     NKDIM =      4   number of bands    NBANDS=   1201
   number of dos      NEDOS =    301   number of ions     NIONS =    250
   non local maximal  LDIM  =      8   non local SUM 2l+1 LMDIM =     25
   total plane-waves  NPLWV = 125000
   max r-space proj   IRMAX =   4412   max aug-charges    IRDMAX=   3658
   dimension x,y,z NGX =    50 NGY =   50 NGZ =   50
   dimension x,y,z NGXF=   100 NGYF=  100 NGZF=  100
   support grid    NGXF=   100 NGYF=  100 NGZF=  100
   ions per type =             125 125
   NGX,Y,Z   is equivalent  to a cutoff of   7.89,  7.89,  7.89 a.u.
   NGXF,Y,Z  is equivalent  to a cutoff of  15.77, 15.77, 15.77 a.u.

 SYSTEM =  NiAl                                    
 POSCAR =  New structure                           

 Startparameter for this run:
   NWRITE =      2    write-flag & timer
   PREC   = normal    normal or accurate (medium, high low for compatibility)
   ISTART =      0    job   : 0-new  1-cont  2-samecut
   ICHARG =      2    charge: 1-file 2-atom 10-const
   ISPIN  =      2    spin polarized calculation?
   LNONCOLLINEAR =      F non collinear calculations
   LSORBIT =      F    spin-orbit coupling
   INIWAV =      1    electr: 0-lowe 1-rand  2-diag
   LASPH  =      F    aspherical Exc in radial PAW
 Electronic Relaxation 1
   ENCUT  =  360.0 eV  26.46 Ry    5.14 a.u.  16.31 16.31 16.31*2*pi/ulx,y,z
   ENINI  =  360.0     initial cutoff
   ENAUG  = 1139.6 eV  augmentation charge cutoff
   NELM   =     60;   NELMIN=  6; NELMDL= -5     # of ELM steps 
   EDIFF  = 0.1E-06   stopping-criterion for ELM
   LREAL  =      T    real-space projection
   NLSPLINE    = F    spline interpolate recip. space projectors
   LCOMPAT=      F    compatible to vasp.4.4
   GGA_COMPAT  = T    GGA compatible to vasp.4.4-vasp.4.6
   LMAXPAW     = -100 max onsite density
   LMAXMIX     =    2 max onsite mixed and CHGCAR
   VOSKOWN=      0    Vosko Wilk Nusair interpolation
   ROPT   =   -0.00050  -0.00050
 Ionic relaxation
   EDIFFG = 0.1E-05   stopping-criterion for IOM
   NSW    =      0    number of steps for IOM
   NBLOCK =      1;   KBLOCK =      1    inner block; outer block 
   IBRION =     -1    ionic relax: 0-MD 1-quasi-New 2-CG
   NFREE  =      0    steps in history (QN), initial steepest desc. (CG)
   ISIF   =      2    stress and relaxation
   IWAVPR =     10    prediction:  0-non 1-charg 2-wave 3-comb
   ISYM   =      2    0-nonsym 1-usesym 2-fastsym
   LCORR  =      T    Harris-Foulkes like correction to forces

   POTIM  = 0.5000    time-step for ionic-motion
   TEIN   =    0.0    initial temperature
   TEBEG  =    0.0;   TEEND  =   0.0 temperature during run
   SMASS  =  -3.00    Nose mass-parameter (am)
   estimated Nose-frequenzy (Omega)   =  0.10E-29 period in steps = 0.13E+47 mass=  -0.254E-26a.u.
   SCALEE = 1.0000    scale energy and forces
   NPACO  =    256;   APACO  = 16.0  distance and # of slots for P.C.
   PSTRESS=    0.0 pullay stress

  Mass of Ions in am
   POMASS =  58.69 16.00
  Ionic Valenz
   ZVAL   =  10.00  6.00
  Atomic Wigner-Seitz radii
   RWIGS  =  -1.00 -1.00
  virtual crystal weights 
   VCA    =   1.00  1.00
   NELECT =    2000.0000    total number of electrons
   NUPDOWN=      -1.0000    fix difference up-down

 DOS related values:
   EMIN   =  10.00;   EMAX   =-10.00  energy-range for DOS
   EFERMI =   0.00
   ISMEAR =     0;   SIGMA  =   0.05  broadening in eV -4-tet -1-fermi 0-gaus

 Electronic relaxation 2 (details)
   IALGO  =     38    algorithm
   LDIAG  =      T    sub-space diagonalisation (order eigenvalues)
   LSUBROT=      F    optimize rotation matrix (better conditioning)
   TURBO    =      0    0=normal 1=particle mesh
   IRESTART =      0    0=no restart 2=restart with 2 vectors
   NREBOOT  =      0    no. of reboots
   NMIN     =      0    reboot dimension
   EREF     =   0.00    reference energy to select bands
   IMIX   =      4    mixing-type and parameters
     AMIX     =   0.40;   BMIX     =  1.00
     AMIX_MAG =   1.60;   BMIX_MAG =  1.00
     AMIN     =   0.10
     WC   =   100.;   INIMIX=   1;  MIXPRE=   1;  MAXMIX= -45

 Intra band minimization:
   WEIMIN = 0.0000     energy-eigenvalue tresh-hold
   EBREAK =  0.21E-10  absolut break condition
   DEPER  =   0.30     relativ break condition  

   TIME   =   0.40     timestep for ELM

  volume/ion in A,a.u.               =       4.69        31.62
  Fermi-wavevector in a.u.,A,eV,Ry     =   1.956662  3.697555 52.090246  3.828525
  Thomas-Fermi vector in A             =   2.982715
 
 Write flags
   LWAVE        =      F    write WAVECAR
   LDOWNSAMPLE  =      F    k-point downsampling of WAVECAR
   LCHARG       =      F    write CHGCAR
   LVTOT        =      F    write LOCPOT, total local potential
   LVHAR        =      F    write LOCPOT, Hartree potential only
   LELF         =      F    write electronic localiz. function (ELF)
[...]
      2.10830      6.32490      2.10830         0.000065     -0.000065      0.000065
      2.10830      6.32490      4.21660         0.000012     -0.000012      0.000000
      2.10830      6.32490      6.32490         0.000065     -0.000065     -0.000065
      2.10830      6.32490      8.43320         0.000027     -0.000027     -0.000006
      2.10830      8.43320      0.00000         0.000095      0.000022     -0.000022
      2.10830      8.43320      2.10830         0.000027     -0.000006      0.000027
      2.10830      8.43320      4.21660        -0.000086     -0.000034      0.000000
      2.10830      8.43320      6.32490         0.000027     -0.000006     -0.000027
      2.10830      8.43320      8.43320         0.000095      0.000022      0.000022
      4.21660      0.00000      0.00000        -0.000000     -0.000093     -0.000093
      4.21660      0.00000      2.10830        -0.000000      0.000034     -0.000086
      4.21660      0.00000      4.21660         0.000000      0.000028      0.000000
      4.21660      0.00000      6.32490         0.000000      0.000034      0.000086
      4.21660      0.00000      8.43320         0.000000     -0.000093      0.000093
      4.21660      2.10830      0.00000         0.000000     -0.000086      0.000034
      4.21660      2.10830      2.10830        -0.000000      0.000012      0.000012
      4.21660      2.10830      4.21660        -0.000000     -0.000029      0.000000
      4.21660      2.10830      6.32490         0.000000      0.000012     -0.000012
      4.21660      2.10830      8.43320        -0.000000     -0.000086     -0.000034
      4.21660      4.21660      0.00000        -0.000000      0.000000      0.000028
      4.21660      4.21660      2.10830        -0.000000      0.000000     -0.000029
      4.21660      4.21660      4.21660        -0.000000      0.000000      0.000000
      4.21660      4.21660      6.32490        -0.000000      0.000000      0.000029
      4.21660      4.21660      8.43320        -0.000000      0.000000     -0.000028
      4.21660      6.32490      0.00000         0.000000      0.000086      0.000034
      4.21660      6.32490      2.10830         0.000000     -0.000012      0.000012
      4.21660      6.32490      4.21660        -0.000000      0.000029      0.000000
      4.21660      6.32490      6.32490         0.000000     -0.000012     -0.000012
      4.21660      6.32490      8.43320         0.000000      0.000086     -0.000034
      4.21660      8.43320      0.00000        -0.000000      0.000093     -0.000093
      4.21660      8.43320      2.10830         0.000000     -0.000034     -0.000086
      4.21660      8.43320      4.21660         0.000000     -0.000028      0.000000
      4.21660      8.43320      6.32490         0.000000     -0.000034      0.000086
      4.21660      8.43320      8.43320        -0.000000      0.000093      0.000093
      6.32490      0.00000      0.00000        -0.000095     -0.000022     -0.000022
      6.32490      0.00000      2.10830        -0.000027      0.000006      0.000027
      6.32490      0.00000      4.21660         0.000086      0.000034      0.000000
      6.32490      0.00000      6.32490        -0.000027      0.000006     -0.000027
      6.32490      0.00000      8.43320        -0.000095     -0.000022      0.000022
      6.32490      2.10830      0.00000        -0.000027      0.000027      0.000006
      6.32490      2.10830      2.10830        -0.000065      0.000065      0.000065
      6.32490      2.10830      4.21660        -0.000012      0.000012      0.000000
      6.32490      2.10830      6.32490        -0.000065      0.000065     -0.000065
      6.32490      2.10830      8.43320        -0.000027      0.000027     -0.000006
      6.32490      4.21660      0.00000         0.000086      0.000000      0.000034
      6.32490      4.21660      2.10830        -0.000012      0.000000      0.000012
      6.32490      4.21660      4.21660         0.000029      0.000000      0.000000
      6.32490      4.21660      6.32490        -0.000012      0.000000     -0.000012
      6.32490      4.21660      8.43320         0.000086      0.000000     -0.000034
      6.32490      6.32490      0.00000        -0.000027     -0.000027      0.000006
      6.32490      6.32490      2.10830        -0.000065     -0.000065      0.000065
      6.32490      6.32490      4.21660        -0.000012     -0.000012      0.000000
      6.32490      6.32490      6.32490        -0.000065     -0.000065     -0.000065
      6.32490      6.32490      8.43320        -0.000027     -0.000027     -0.000006
      6.32490      8.43320      0.00000        -0.000095      0.000022     -0.000022
      6.32490      8.43320      2.10830        -0.000027     -0.000006      0.000027
      6.32490      8.43320      4.21660         0.000086     -0.000034      0.000000
      6.32490      8.43320      6.32490        -0.000027     -0.000006     -0.000027
      6.32490      8.43320      8.43320        -0.000095      0.000022      0.000022
      8.43320      0.00000      0.00000         0.000052     -0.000052     -0.000052
      8.43320      0.00000      2.10830         0.000022     -0.000022      0.000095
      8.43320      0.00000      4.21660         0.000093     -0.000093      0.000000
      8.43320      0.00000      6.32490         0.000022     -0.000022     -0.000095
      8.43320      0.00000      8.43320         0.000052     -0.000052      0.000052
      8.43320      2.10830      0.00000         0.000022      0.000095     -0.000022
      8.43320      2.10830      2.10830        -0.000006      0.000027      0.000027
      8.43320      2.10830      4.21660        -0.000034     -0.000086      0.000000
      8.43320      2.10830      6.32490        -0.000006      0.000027     -0.000027
      8.43320      2.10830      8.43320         0.000022      0.000095      0.000022
      8.43320      4.21660      0.00000         0.000093      0.000000     -0.000093
      8.43320      4.21660      2.10830        -0.000034      0.000000     -0.000086
      8.43320      4.21660      4.21660        -0.000028      0.000000      0.000000
      8.43320      4.21660      6.32490        -0.000034      0.000000      0.000086
      8.43320      4.21660      8.43320         0.000093      0.000000      0.000093
      8.43320      6.32490      0.00000         0.000022     -0.000095     -0.000022
      8.43320      6.32490      2.10830        -0.000006     -0.000027      0.000027
      8.43320      6.32490      4.21660        -0.000034      0.000086      0.000000
      8.43320      6.32490      6.32490        -0.000006     -0.000027     -0.000027
      8.43320      6.32490      8.43320         0.000022     -0.000095      0.000022
      8.43320      8.43320      0.00000         0.000052      0.000052     -0.000052
      8.43320      8.43320      2.10830         0.000022      0.000022      0.000095
      8.43320      8.43320      4.21660         0.000093      0.000093      0.000000
      8.43320      8.43320      6.32490         0.000022      0.000022     -0.000095
      8.43320      8.43320      8.43320         0.000052      0.000052      0.000052
      1.05415      1.05415      1.05415        -0.000046     -0.000046     -0.000046
      1.05415      1.05415      3.16245         0.000050      0.000050      0.000009
      1.05415      1.05415      5.27075         0.000050      0.000050     -0.000009
      1.05415      1.05415      7.37905        -0.000046     -0.000046      0.000046
      1.05415      1.05415      9.48735        -0.000148     -0.000148      0.000000
      1.05415      3.16245      1.05415         0.000050      0.000009      0.000050
      1.05415      3.16245      3.16245         0.000183      0.000050      0.000050
      1.05415      3.16245      5.27075         0.000183      0.000050     -0.000050
      1.05415      3.16245      7.37905         0.000050      0.000009     -0.000050
      1.05415      3.16245      9.48735        -0.000103      0.000032      0.000000
      1.05415      5.27075      1.05415         0.000050     -0.000009      0.000050
      1.05415      5.27075      3.16245         0.000183     -0.000050      0.000050
      1.05415      5.27075      5.27075         0.000183     -0.000050     -0.000050
      1.05415      5.27075      7.37905         0.000050     -0.000009     -0.000050
      1.05415      5.27075      9.48735        -0.000103     -0.000032      0.000000
      1.05415      7.37905      1.05415        -0.000046      0.000046     -0.000046
      1.05415      7.37905      3.16245         0.000050     -0.000050      0.000009
      1.05415      7.37905      5.27075         0.000050     -0.000050     -0.000009
      1.05415      7.37905      7.37905        -0.000046      0.000046      0.000046
      1.05415      7.37905      9.48735        -0.000148      0.000148      0.000000
      1.05415      9.48735      1.05415        -0.000148      0.000000     -0.000148
      1.05415      9.48735      3.16245        -0.000103      0.000000      0.000032
      1.05415      9.48735      5.27075        -0.000103      0.000000     -0.000032
      1.05415      9.48735      7.37905        -0.000148      0.000000      0.000148
      1.05415      9.48735      9.48735        -0.000234      0.000000      0.000000
      3.16245      1.05415      1.05415         0.000009      0.000050      0.000050
      3.16245      1.05415      3.16245         0.000050      0.000183      0.000050
      3.16245      1.05415      5.27075         0.000050      0.000183     -0.000050
      3.16245      1.05415      7.37905         0.000009      0.000050     -0.000050
      3.16245      1.05415      9.48735         0.000032     -0.000103      0.000000
      3.16245      3.16245      1.05415         0.000050      0.000050      0.000183
      3.16245      3.16245      3.16245         0.000045      0.000045      0.000045
      3.16245      3.16245      5.27075         0.000045      0.000045     -0.000045
      3.16245      3.16245      7.37905         0.000050      0.000050     -0.000183
      3.16245      3.16245      9.48735         0.000090      0.000090      0.000000
      3.16245      5.27075      1.05415         0.000050     -0.000050      0.000183
      3.16245      5.27075      3.16245         0.000045     -0.000045      0.000045
      3.16245      5.27075      5.27075         0.000045     -0.000045     -0.000045
      3.16245      5.27075      7.37905         0.000050     -0.000050     -0.000183
      3.16245      5.27075      9.48735         0.000090     -0.000090      0.000000
      3.16245      7.37905      1.05415         0.000009     -0.000050      0.000050
      3.16245      7.37905      3.16245         0.000050     -0.000183      0.000050
      3.16245      7.37905      5.27075         0.000050     -0.000183     -0.000050
      3.16245      7.37905      7.37905         0.000009     -0.000050     -0.000050
      3.16245      7.37905      9.48735         0.000032      0.000103      0.000000
      3.16245      9.48735      1.05415         0.000032      0.000000     -0.000103
      3.16245      9.48735      3.16245         0.000090      0.000000      0.000090
      3.16245      9.48735      5.27075         0.000090      0.000000     -0.000090
      3.16245      9.48735      7.37905         0.000032      0.000000      0.000103
      3.16245      9.48735      9.48735         0.000047      0.000000      0.000000
      5.27075      1.05415      1.05415        -0.000009      0.000050      0.000050
      5.27075      1.05415      3.16245        -0.000050      0.000183      0.000050
      5.27075      1.05415      5.27075        -0.000050      0.000183     -0.000050
      5.27075      1.05415      7.37905        -0.000009      0.000050     -0.000050
      5.27075      1.05415      9.48735        -0.000032     -0.000103      0.000000
      5.27075      3.16245      1.05415        -0.000050      0.000050      0.000183
      5.27075      3.16245      3.16245        -0.000045      0.000045      0.000045
      5.27075      3.16245      5.27075        -0.000045      0.000045     -0.000045
      5.27075      3.16245      7.37905        -0.000050      0.000050     -0.000183
      5.27075      3.16245      9.48735        -0.000090      0.000090      0.000000
      5.27075      5.27075      1.05415        -0.000050     -0.000050      0.000183
      5.27075      5.27075      3.16245        -0.000045     -0.000045      0.000045
      5.27075      5.27075      5.27075        -0.000045     -0.000045     -0.000045
      5.27075      5.27075      7.37905        -0.000050     -0.000050     -0.000183
      5.27075      5.27075      9.48735        -0.000090     -0.000090      0.000000
      5.27075      7.37905      1.05415        -0.000009     -0.000050      0.000050
      5.27075      7.37905      3.16245        -0.000050     -0.000183      0.000050
      5.27075      7.37905      5.27075        -0.000050     -0.000183     -0.000050
      5.27075      7.37905      7.37905        -0.000009     -0.000050     -0.000050
      5.27075      7.37905      9.48735        -0.000032      0.000103      0.000000
      5.27075      9.48735      1.05415        -0.000032      0.000000     -0.000103
      5.27075      9.48735      3.16245        -0.000090      0.000000      0.000090
      5.27075      9.48735      5.27075        -0.000090      0.000000     -0.000090
      5.27075      9.48735      7.37905        -0.000032      0.000000      0.000103
      5.27075      9.48735      9.48735        -0.000047      0.000000      0.000000
      7.37905      1.05415      1.05415         0.000046     -0.000046     -0.000046
      7.37905      1.05415      3.16245        -0.000050      0.000050      0.000009
      7.37905      1.05415      5.27075        -0.000050      0.000050     -0.000009
      7.37905      1.05415      7.37905         0.000046     -0.000046      0.000046
      7.37905      1.05415      9.48735         0.000148     -0.000148      0.000000
      7.37905      3.16245      1.05415        -0.000050      0.000009      0.000050
      7.37905      3.16245      3.16245        -0.000183      0.000050      0.000050
      7.37905      3.16245      5.27075        -0.000183      0.000050     -0.000050
      7.37905      3.16245      7.37905        -0.000050      0.000009     -0.000050
      7.37905      3.16245      9.48735         0.000103      0.000032      0.000000
      7.37905      5.27075      1.05415        -0.000050     -0.000009      0.000050
      7.37905      5.27075      3.16245        -0.000183     -0.000050      0.000050
      7.37905      5.27075      5.27075        -0.000183     -0.000050     -0.000050
      7.37905      5.27075      7.37905        -0.000050     -0.000009     -0.000050
      7.37905      5.27075      9.48735         0.000103     -0.000032      0.000000
      7.37905      7.37905      1.05415         0.000046      0.000046     -0.000046
      7.37905      7.37905      3.16245        -0.000050     -0.000050      0.000009
      7.37905      7.37905      5.27075        -0.000050     -0.000050     -0.000009
      7.37905      7.37905      7.37905         0.000046      0.000046      0.000046
      7.37905      7.37905      9.48735         0.000148      0.000148      0.000000
      7.37905      9.48735      1.05415         0.000148      0.000000     -0.000148
      7.37905      9.48735      3.16245         0.000103      0.000000      0.000032
      7.37905      9.48735      5.27075         0.000103      0.000000     -0.000032
      7.37905      9.48735      7.37905         0.000148      0.000000      0.000148
      7.37905      9.48735      9.48735         0.000234      0.000000      0.000000
      9.48735      1.05415      1.05415         0.000000     -0.000148     -0.000148
      9.48735      1.05415      3.16245        -0.000000     -0.000103      0.000032
      9.48735      1.05415      5.27075        -0.000000     -0.000103     -0.000032
      9.48735      1.05415      7.37905        -0.000000     -0.000148      0.000148
      9.48735      1.05415      9.48735        -0.000000     -0.000234      0.000000
      9.48735      3.16245      1.05415         0.000000      0.000032     -0.000103
      9.48735      3.16245      3.16245        -0.000000      0.000090      0.000090
      9.48735      3.16245      5.27075        -0.000000      0.000090     -0.000090
      9.48735      3.16245      7.37905         0.000000      0.000032      0.000103
      9.48735      3.16245      9.48735        -0.000000      0.000047      0.000000
      9.48735      5.27075      1.05415        -0.000000     -0.000032     -0.000103
      9.48735      5.27075      3.16245        -0.000000     -0.000090      0.000090
      9.48735      5.27075      5.27075        -0.000000     -0.000090     -0.000090
      9.48735      5.27075      7.37905         0.000000     -0.000032      0.000103
      9.48735      5.27075      9.48735        -0.000000     -0.000047      0.000000
      9.48735      7.37905      1.05415         0.000000      0.000148     -0.000148
      9.48735      7.37905      3.16245        -0.000000      0.000103      0.000032
      9.48735      7.37905      5.27075        -0.000000      0.000103     -0.000032
      9.48735      7.37905      7.37905         0.000000      0.000148      0.000148
      9.48735      7.37905      9.48735        -0.000000      0.000234      0.000000
      9.48735      9.48735      1.05415        -0.000000      0.000000     -0.000234
      9.48735      9.48735      3.16245        -0.000000      0.000000      0.000047
      9.48735      9.48735      5.27075        -0.000000      0.000000     -0.000047
      9.48735      9.48735      7.37905        -0.000000      0.000000      0.000234
      9.48735      9.48735      9.48735         0.000000      0.000000      0.000000
 -----------------------------------------------------------------------------------
    total drift:                               -0.000000     -0.000000     -0.000000


--------------------------------------------------------------------------------------------------------



  FREE ENERGIE OF THE ION-ELECTRON SYSTEM (eV)
  ---------------------------------------------------
  free  energy   TOTEN  =      -509.51703724 eV

  energy  without entropy=     -509.27723043  energy(sigma->0) =     -509.39713383
 


--------------------------------------------------------------------------------------------------------


    POTLOK:  cpu time    1.1559: real time    1.1561


--------------------------------------------------------------------------------------------------------


 stress matrix after NEB project (eV)
   3223.78351     -0.00000      0.00000
      0.00000   3223.78351     -0.00000
     -0.00000      0.00000   3223.78351
  FORCES: max atom, RMS     0.000234    0.000116
  FORCE total and by dimension    0.001833    0.000234
  Stress total and by dimension 5583.756830 3223.783509
     LOOP+:  cpu time 1548.2565: real time 1548.5418
    4ORBIT:  cpu time    0.0000: real time    0.0000

 total amount of memory used by VASP MPI-rank0  4026168. kBytes
=======================================================================

   base      :      30000. kBytes
   nonlr-proj:     156547. kBytes
   fftplans  :      34720. kBytes
   grid      :      91360. kBytes
   one-center:      15000. kBytes
   wavefun   :    3698541. kBytes
 
  
  
 General timing and accounting informations for this job:
 ========================================================
  
                  Total CPU time used (sec):     1571.468
                            User time (sec):     1563.535
                          System time (sec):        7.933
                         Elapsed time (sec):     1572.348
  
                   Maximum memory used (kb):     6536476.
                   Average memory used (kb):          N/A
  
                          Minor page faults:      6096133
                          Major page faults:            0
                 Voluntary context switches:        21329
