<?xml version="1.0" encoding="ISO-8859-1"?>
<modeling>
 <generator>
  <i name="program" type="string">vasp </i>
  <i name="version" type="string">6.2.1  </i>
  <i name="subversion" type="string">16May21 (build Jun 16 2021 03:23:30) complex                          parallel </i>
  <i name="platform" type="string">LinuxPGI </i>
  <i name="date" type="string">2022 04 24 </i>
  <i name="time" type="string">20:01:46 </i>
 </generator>
 <incar>
  <i type="string" name="SYSTEM">NiAl</i>
  <i type="int" name="ISTART">     0</i>
  <i type="int" name="ISPIN">     2</i>
  <i type="int" name="NELMIN">     6</i>
  <i name="EDIFF">      0.00000010</i>
  <i name="ENCUT">    360.00000000</i>
  <v name="MAGMOM">      2.00000000     -2.00000000      2.00000000     -2.00000000      2.00000000     -2.00000000      2.00000000     -2.00000000      2.00000000     -2.00000000      2.00000000     -2.00000000      2.00000000     -2.00000000      2.00000000     -2.00000000      2.00000000     -2.00000000      2.00000000     -2.00000000
      2.00000000     -2.00000000      2.00000000     -2.00000000      2.00000000     -2.00000000      2.00000000     -2.00000000      2.00000000     -2.00000000      2.00000000     -2.00000000      2.00000000     -2.00000000      2.00000000     -2.00000000      2.00000000     -2.00000000      2.00000000     -2.00000000
      2.00000000     -2.00000000      2.00000000     -2.00000000      2.00000000     -2.00000000      2.00000000     -2.00000000      2.00000000     -2.00000000      2.00000000     -2.00000000      2.00000000     -2.00000000      2.00000000     -2.00000000      2.00000000     -2.00000000      2.00000000     -2.00000000
      2.00000000     -2.00000000      2.00000000     -2.00000000      2.00000000     -2.00000000      2.00000000     -2.00000000      2.00000000     -2.00000000      2.00000000     -2.00000000      2.00000000     -2.00000000      2.00000000     -2.00000000      2.00000000     -2.00000000      2.00000000     -2.00000000
      2.00000000     -2.00000000      2.00000000     -2.00000000      2.00000000     -2.00000000      2.00000000     -2.00000000      2.00000000     -2.00000000      2.00000000     -2.00000000      2.00000000     -2.00000000      2.00000000     -2.00000000      2.00000000     -2.00000000      2.00000000     -2.00000000
      2.00000000     -2.00000000      2.00000000     -2.00000000      2.00000000     -2.00000000      2.00000000     -2.00000000      2.00000000     -2.00000000      2.00000000     -2.00000000      2.00000000     -2.00000000      2.00000000     -2.00000000      2.00000000     -2.00000000      2.00000000     -2.00000000
      2.00000000     -2.00000000      2.00000000     -2.00000000      2.00000000      0.00000000      0.00000000      0.00000000      0.00000000      0.00000000      0.00000000      0.00000000      0.00000000      0.00000000      0.00000000      0.00000000      0.00000000      0.00000000      0.00000000      0.00000000
      0.00000000      0.00000000      0.00000000      0.00000000      0.00000000      0.00000000      0.00000000      0.00000000      0.00000000      0.00000000      0.00000000      0.00000000      0.00000000      0.00000000      0.00000000      0.00000000      0.00000000      0.00000000      0.00000000      0.00000000
      0.00000000      0.00000000      0.00000000      0.00000000      0.00000000      0.00000000      0.00000000      0.00000000      0.00000000      0.00000000      0.00000000      0.00000000      0.00000000      0.00000000      0.00000000      0.00000000      0.00000000      0.00000000      0.00000000      0.00000000
      0.00000000      0.00000000      0.00000000      0.00000000      0.00000000      0.00000000      0.00000000      0.00000000      0.00000000      0.00000000      0.00000000      0.00000000      0.00000000      0.00000000      0.00000000      0.00000000      0.00000000      0.00000000      0.00000000      0.00000000
      0.00000000      0.00000000      0.00000000      0.00000000      0.00000000      0.00000000      0.00000000      0.00000000      0.00000000      0.00000000      0.00000000      0.00000000      0.00000000      0.00000000      0.00000000      0.00000000      0.00000000      0.00000000      0.00000000      0.00000000
      0.00000000      0.00000000      0.00000000      0.00000000      0.00000000      0.00000000      0.00000000      0.00000000      0.00000000      0.00000000      0.00000000      0.00000000      0.00000000      0.00000000      0.00000000      0.00000000      0.00000000      0.00000000      0.00000000      0.00000000
      0.00000000      0.00000000      0.00000000      0.00000000      0.00000000      0.00000000      0.00000000      0.00000000      0.00000000      0.00000000</v>
  <i type="string" name="LREAL">Auto</i>
  <i type="logical" name="LPLANE"> T  </i>
  <i type="int" name="ISMEAR">     0</i>
  <i name="SIGMA">      0.05000000</i>
  <i type="logical" name="LWAVE"> F  </i>
  <i type="logical" name="LCHARG"> F  </i>
  <i type="int" name="IVDW">    12</i>
 </incar>
 <primitive_cell>
  <structure name="primitive_cell" >
   <crystal>
    <varray name="basis" >
     <v>      10.54150000       0.00000000       0.00000000 </v>
     <v>       0.00000000      10.54150000       0.00000000 </v>
     <v>       0.00000000       0.00000000      10.54150000 </v>
    </varray>
    <i name="volume">   1171.40544735 </i>
    <varray name="rec_basis" >
     <v>       0.09486316       0.00000000       0.00000000 </v>
     <v>       0.00000000       0.09486316       0.00000000 </v>
     <v>       0.00000000       0.00000000       0.09486316 </v>
    </varray>
   </crystal>
   <varray name="positions" >
    <v>       0.00000000       0.00000000       0.00000000 </v>
    <v>       0.00000000       0.00000000       0.20000000 </v>
    <v>       0.00000000       0.00000000       0.40000000 </v>
    <v>       0.00000000       0.00000000       0.60000000 </v>
    <v>       0.00000000       0.00000000       0.80000000 </v>
    <v>       0.00000000       0.20000000       0.00000000 </v>
    <v>       0.00000000       0.20000000       0.20000000 </v>
    <v>       0.00000000       0.20000000       0.40000000 </v>
    <v>       0.00000000       0.20000000       0.60000000 </v>
    <v>       0.00000000       0.20000000       0.80000000 </v>
    <v>       0.00000000       0.40000000       0.00000000 </v>
    <v>       0.00000000       0.40000000       0.20000000 </v>
    <v>       0.00000000       0.40000000       0.40000000 </v>
    <v>       0.00000000       0.40000000       0.60000000 </v>
    <v>       0.00000000       0.40000000       0.80000000 </v>
    <v>       0.00000000       0.60000000       0.00000000 </v>
    <v>       0.00000000       0.60000000       0.20000000 </v>
    <v>       0.00000000       0.60000000       0.40000000 </v>
    <v>       0.00000000       0.60000000       0.60000000 </v>
    <v>       0.00000000       0.60000000       0.80000000 </v>
    <v>       0.00000000       0.80000000       0.00000000 </v>
    <v>       0.00000000       0.80000000       0.20000000 </v>
    <v>       0.00000000       0.80000000       0.40000000 </v>
    <v>       0.00000000       0.80000000       0.60000000 </v>
    <v>       0.00000000       0.80000000       0.80000000 </v>
    <v>       0.20000000       0.00000000       0.00000000 </v>
    <v>       0.20000000       0.00000000       0.20000000 </v>
    <v>       0.20000000       0.00000000       0.40000000 </v>
    <v>       0.20000000       0.00000000       0.60000000 </v>
    <v>       0.20000000       0.00000000       0.80000000 </v>
    <v>       0.20000000       0.20000000       0.00000000 </v>
    <v>       0.20000000       0.20000000       0.20000000 </v>
    <v>       0.20000000       0.20000000       0.40000000 </v>
    <v>       0.20000000       0.20000000       0.60000000 </v>
    <v>       0.20000000       0.20000000       0.80000000 </v>
    <v>       0.20000000       0.40000000       0.00000000 </v>
    <v>       0.20000000       0.40000000       0.20000000 </v>
    <v>       0.20000000       0.40000000       0.40000000 </v>
    <v>       0.20000000       0.40000000       0.60000000 </v>
    <v>       0.20000000       0.40000000       0.80000000 </v>
    <v>       0.20000000       0.60000000       0.00000000 </v>
    <v>       0.20000000       0.60000000       0.20000000 </v>
    <v>       0.20000000       0.60000000       0.40000000 </v>
    <v>       0.20000000       0.60000000       0.60000000 </v>
    <v>       0.20000000       0.60000000       0.80000000 </v>
    <v>       0.20000000       0.80000000       0.00000000 </v>
    <v>       0.20000000       0.80000000       0.20000000 </v>
    <v>       0.20000000       0.80000000       0.40000000 </v>
    <v>       0.20000000       0.80000000       0.60000000 </v>
    <v>       0.20000000       0.80000000       0.80000000 </v>
    <v>       0.40000000       0.00000000       0.00000000 </v>
    <v>       0.40000000       0.00000000       0.20000000 </v>
    <v>       0.40000000       0.00000000       0.40000000 </v>
    <v>       0.40000000       0.00000000       0.60000000 </v>
    <v>       0.40000000       0.00000000       0.80000000 </v>
    <v>       0.40000000       0.20000000       0.00000000 </v>
    <v>       0.40000000       0.20000000       0.20000000 </v>
    <v>       0.40000000       0.20000000       0.40000000 </v>
    <v>       0.40000000       0.20000000       0.60000000 </v>
    <v>       0.40000000       0.20000000       0.80000000 </v>
    <v>       0.40000000       0.40000000       0.00000000 </v>
    <v>       0.40000000       0.40000000       0.20000000 </v>
    <v>       0.40000000       0.40000000       0.40000000 </v>
    <v>       0.40000000       0.40000000       0.60000000 </v>
    <v>       0.40000000       0.40000000       0.80000000 </v>
    <v>       0.40000000       0.60000000       0.00000000 </v>
    <v>       0.40000000       0.60000000       0.20000000 </v>
    <v>       0.40000000       0.60000000       0.40000000 </v>
    <v>       0.40000000       0.60000000       0.60000000 </v>
    <v>       0.40000000       0.60000000       0.80000000 </v>
    <v>       0.40000000       0.80000000       0.00000000 </v>
    <v>       0.40000000       0.80000000       0.20000000 </v>
    <v>       0.40000000       0.80000000       0.40000000 </v>
    <v>       0.40000000       0.80000000       0.60000000 </v>
    <v>       0.40000000       0.80000000       0.80000000 </v>
    <v>       0.60000000       0.00000000       0.00000000 </v>
    <v>       0.60000000       0.00000000       0.20000000 </v>
    <v>       0.60000000       0.00000000       0.40000000 </v>
    <v>       0.60000000       0.00000000       0.60000000 </v>
    <v>       0.60000000       0.00000000       0.80000000 </v>
    <v>       0.60000000       0.20000000       0.00000000 </v>
    <v>       0.60000000       0.20000000       0.20000000 </v>
    <v>       0.60000000       0.20000000       0.40000000 </v>
    <v>       0.60000000       0.20000000       0.60000000 </v>
    <v>       0.60000000       0.20000000       0.80000000 </v>
    <v>       0.60000000       0.40000000       0.00000000 </v>
    <v>       0.60000000       0.40000000       0.20000000 </v>
    <v>       0.60000000       0.40000000       0.40000000 </v>
    <v>       0.60000000       0.40000000       0.60000000 </v>
    <v>       0.60000000       0.40000000       0.80000000 </v>
    <v>       0.60000000       0.60000000       0.00000000 </v>
    <v>       0.60000000       0.60000000       0.20000000 </v>
    <v>       0.60000000       0.60000000       0.40000000 </v>
    <v>       0.60000000       0.60000000       0.60000000 </v>
    <v>       0.60000000       0.60000000       0.80000000 </v>
    <v>       0.60000000       0.80000000       0.00000000 </v>
    <v>       0.60000000       0.80000000       0.20000000 </v>
    <v>       0.60000000       0.80000000       0.40000000 </v>
    <v>       0.60000000       0.80000000       0.60000000 </v>
    <v>       0.60000000       0.80000000       0.80000000 </v>
    <v>       0.80000000       0.00000000       0.00000000 </v>
    <v>       0.80000000       0.00000000       0.20000000 </v>
    <v>       0.80000000       0.00000000       0.40000000 </v>
    <v>       0.80000000       0.00000000       0.60000000 </v>
    <v>       0.80000000       0.00000000       0.80000000 </v>
    <v>       0.80000000       0.20000000       0.00000000 </v>
    <v>       0.80000000       0.20000000       0.20000000 </v>
    <v>       0.80000000       0.20000000       0.40000000 </v>
    <v>       0.80000000       0.20000000       0.60000000 </v>
    <v>       0.80000000       0.20000000       0.80000000 </v>
    <v>       0.80000000       0.40000000       0.00000000 </v>
    <v>       0.80000000       0.40000000       0.20000000 </v>
    <v>       0.80000000       0.40000000       0.40000000 </v>
    <v>       0.80000000       0.40000000       0.60000000 </v>
    <v>       0.80000000       0.40000000       0.80000000 </v>
    <v>       0.80000000       0.60000000       0.00000000 </v>
    <v>       0.80000000       0.60000000       0.20000000 </v>
    <v>       0.80000000       0.60000000       0.40000000 </v>
    <v>       0.80000000       0.60000000       0.60000000 </v>
    <v>       0.80000000       0.60000000       0.80000000 </v>
    <v>       0.80000000       0.80000000       0.00000000 </v>
    <v>       0.80000000       0.80000000       0.20000000 </v>
    <v>       0.80000000       0.80000000       0.40000000 </v>
    <v>       0.80000000       0.80000000       0.60000000 </v>
    <v>       0.80000000       0.80000000       0.80000000 </v>
    <v>       0.10000000       0.10000000       0.10000000 </v>
    <v>       0.10000000       0.10000000       0.30000000 </v>
    <v>       0.10000000       0.10000000       0.50000000 </v>
    <v>       0.10000000       0.10000000       0.70000000 </v>
    <v>       0.10000000       0.10000000       0.90000000 </v>
    <v>       0.10000000       0.30000000       0.10000000 </v>
    <v>       0.10000000       0.30000000       0.30000000 </v>
    <v>       0.10000000       0.30000000       0.50000000 </v>
    <v>       0.10000000       0.30000000       0.70000000 </v>
    <v>       0.10000000       0.30000000       0.90000000 </v>
    <v>       0.10000000       0.50000000       0.10000000 </v>
    <v>       0.10000000       0.50000000       0.30000000 </v>
    <v>       0.10000000       0.50000000       0.50000000 </v>
    <v>       0.10000000       0.50000000       0.70000000 </v>
    <v>       0.10000000       0.50000000       0.90000000 </v>
    <v>       0.10000000       0.70000000       0.10000000 </v>
    <v>       0.10000000       0.70000000       0.30000000 </v>
    <v>       0.10000000       0.70000000       0.50000000 </v>
    <v>       0.10000000       0.70000000       0.70000000 </v>
    <v>       0.10000000       0.70000000       0.90000000 </v>
    <v>       0.10000000       0.90000000       0.10000000 </v>
    <v>       0.10000000       0.90000000       0.30000000 </v>
    <v>       0.10000000       0.90000000       0.50000000 </v>
    <v>       0.10000000       0.90000000       0.70000000 </v>
    <v>       0.10000000       0.90000000       0.90000000 </v>
    <v>       0.30000000       0.10000000       0.10000000 </v>
    <v>       0.30000000       0.10000000       0.30000000 </v>
    <v>       0.30000000       0.10000000       0.50000000 </v>
    <v>       0.30000000       0.10000000       0.70000000 </v>
    <v>       0.30000000       0.10000000       0.90000000 </v>
    <v>       0.30000000       0.30000000       0.10000000 </v>
    <v>       0.30000000       0.30000000       0.30000000 </v>
    <v>       0.30000000       0.30000000       0.50000000 </v>
    <v>       0.30000000       0.30000000       0.70000000 </v>
    <v>       0.30000000       0.30000000       0.90000000 </v>
    <v>       0.30000000       0.50000000       0.10000000 </v>
    <v>       0.30000000       0.50000000       0.30000000 </v>
    <v>       0.30000000       0.50000000       0.50000000 </v>
    <v>       0.30000000       0.50000000       0.70000000 </v>
    <v>       0.30000000       0.50000000       0.90000000 </v>
    <v>       0.30000000       0.70000000       0.10000000 </v>
    <v>       0.30000000       0.70000000       0.30000000 </v>
    <v>       0.30000000       0.70000000       0.50000000 </v>
    <v>       0.30000000       0.70000000       0.70000000 </v>
    <v>       0.30000000       0.70000000       0.90000000 </v>
    <v>       0.30000000       0.90000000       0.10000000 </v>
    <v>       0.30000000       0.90000000       0.30000000 </v>
    <v>       0.30000000       0.90000000       0.50000000 </v>
    <v>       0.30000000       0.90000000       0.70000000 </v>
    <v>       0.30000000       0.90000000       0.90000000 </v>
    <v>       0.50000000       0.10000000       0.10000000 </v>
    <v>       0.50000000       0.10000000       0.30000000 </v>
    <v>       0.50000000       0.10000000       0.50000000 </v>
    <v>       0.50000000       0.10000000       0.70000000 </v>
    <v>       0.50000000       0.10000000       0.90000000 </v>
    <v>       0.50000000       0.30000000       0.10000000 </v>
    <v>       0.50000000       0.30000000       0.30000000 </v>
    <v>       0.50000000       0.30000000       0.50000000 </v>
    <v>       0.50000000       0.30000000       0.70000000 </v>
    <v>       0.50000000       0.30000000       0.90000000 </v>
    <v>       0.50000000       0.50000000       0.10000000 </v>
    <v>       0.50000000       0.50000000       0.30000000 </v>
    <v>       0.50000000       0.50000000       0.50000000 </v>
    <v>       0.50000000       0.50000000       0.70000000 </v>
    <v>       0.50000000       0.50000000       0.90000000 </v>
    <v>       0.50000000       0.70000000       0.10000000 </v>
    <v>       0.50000000       0.70000000       0.30000000 </v>
    <v>       0.50000000       0.70000000       0.50000000 </v>
    <v>       0.50000000       0.70000000       0.70000000 </v>
    <v>       0.50000000       0.70000000       0.90000000 </v>
    <v>       0.50000000       0.90000000       0.10000000 </v>
    <v>       0.50000000       0.90000000       0.30000000 </v>
    <v>       0.50000000       0.90000000       0.50000000 </v>
    <v>       0.50000000       0.90000000       0.70000000 </v>
    <v>       0.50000000       0.90000000       0.90000000 </v>
    <v>       0.70000000       0.10000000       0.10000000 </v>
    <v>       0.70000000       0.10000000       0.30000000 </v>
    <v>       0.70000000       0.10000000       0.50000000 </v>
    <v>       0.70000000       0.10000000       0.70000000 </v>
    <v>       0.70000000       0.10000000       0.90000000 </v>
    <v>       0.70000000       0.30000000       0.10000000 </v>
    <v>       0.70000000       0.30000000       0.30000000 </v>
    <v>       0.70000000       0.30000000       0.50000000 </v>
    <v>       0.70000000       0.30000000       0.70000000 </v>
    <v>       0.70000000       0.30000000       0.90000000 </v>
    <v>       0.70000000       0.50000000       0.10000000 </v>
    <v>       0.70000000       0.50000000       0.30000000 </v>
    <v>       0.70000000       0.50000000       0.50000000 </v>
    <v>       0.70000000       0.50000000       0.70000000 </v>
    <v>       0.70000000       0.50000000       0.90000000 </v>
    <v>       0.70000000       0.70000000       0.10000000 </v>
    <v>       0.70000000       0.70000000       0.30000000 </v>
    <v>       0.70000000       0.70000000       0.50000000 </v>
    <v>       0.70000000       0.70000000       0.70000000 </v>
    <v>       0.70000000       0.70000000       0.90000000 </v>
    <v>       0.70000000       0.90000000       0.10000000 </v>
    <v>       0.70000000       0.90000000       0.30000000 </v>
    <v>       0.70000000       0.90000000       0.50000000 </v>
    <v>       0.70000000       0.90000000       0.70000000 </v>
    <v>       0.70000000       0.90000000       0.90000000 </v>
    <v>       0.90000000       0.10000000       0.10000000 </v>
    <v>       0.90000000       0.10000000       0.30000000 </v>
    <v>       0.90000000       0.10000000       0.50000000 </v>
    <v>       0.90000000       0.10000000       0.70000000 </v>
    <v>       0.90000000       0.10000000       0.90000000 </v>
    <v>       0.90000000       0.30000000       0.10000000 </v>
    <v>       0.90000000       0.30000000       0.30000000 </v>
    <v>       0.90000000       0.30000000       0.50000000 </v>
    <v>       0.90000000       0.30000000       0.70000000 </v>
    <v>       0.90000000       0.30000000       0.90000000 </v>
    <v>       0.90000000       0.50000000       0.10000000 </v>
    <v>       0.90000000       0.50000000       0.30000000 </v>
    <v>       0.90000000       0.50000000       0.50000000 </v>
    <v>       0.90000000       0.50000000       0.70000000 </v>
    <v>       0.90000000       0.50000000       0.90000000 </v>
    <v>       0.90000000       0.70000000       0.10000000 </v>
    <v>       0.90000000       0.70000000       0.30000000 </v>
    <v>       0.90000000       0.70000000       0.50000000 </v>
    <v>       0.90000000       0.70000000       0.70000000 </v>
    <v>       0.90000000       0.70000000       0.90000000 </v>
    <v>       0.90000000       0.90000000       0.10000000 </v>
    <v>       0.90000000       0.90000000       0.30000000 </v>
    <v>       0.90000000       0.90000000       0.50000000 </v>
    <v>       0.90000000       0.90000000       0.70000000 </v>
    <v>       0.90000000       0.90000000       0.90000000 </v>
   </varray>
  </structure>
  <varray name="primitive_index" >
   <v type="int" >        1 </v>
   <v type="int" >        2 </v>
   <v type="int" >        3 </v>
   <v type="int" >        4 </v>
   <v type="int" >        5 </v>
   <v type="int" >        6 </v>
   <v type="int" >        7 </v>
   <v type="int" >        8 </v>
   <v type="int" >        9 </v>
   <v type="int" >       10 </v>
   <v type="int" >       11 </v>
   <v type="int" >       12 </v>
   <v type="int" >       13 </v>
   <v type="int" >       14 </v>
   <v type="int" >       15 </v>
   <v type="int" >       16 </v>
   <v type="int" >       17 </v>
   <v type="int" >       18 </v>
   <v type="int" >       19 </v>
   <v type="int" >       20 </v>
   <v type="int" >       21 </v>
   <v type="int" >       22 </v>
   <v type="int" >       23 </v>
   <v type="int" >       24 </v>
   <v type="int" >       25 </v>
   <v type="int" >       26 </v>
   <v type="int" >       27 </v>
   <v type="int" >       28 </v>
   <v type="int" >       29 </v>
   <v type="int" >       30 </v>
   <v type="int" >       31 </v>
   <v type="int" >       32 </v>
   <v type="int" >       33 </v>
   <v type="int" >       34 </v>
   <v type="int" >       35 </v>
   <v type="int" >       36 </v>
   <v type="int" >       37 </v>
   <v type="int" >       38 </v>
   <v type="int" >       39 </v>
   <v type="int" >       40 </v>
   <v type="int" >       41 </v>
   <v type="int" >       42 </v>
   <v type="int" >       43 </v>
   <v type="int" >       44 </v>
   <v type="int" >       45 </v>
   <v type="int" >       46 </v>
   <v type="int" >       47 </v>
   <v type="int" >       48 </v>
   <v type="int" >       49 </v>
   <v type="int" >       50 </v>
   <v type="int" >       51 </v>
   <v type="int" >       52 </v>
   <v type="int" >       53 </v>
   <v type="int" >       54 </v>
   <v type="int" >       55 </v>
   <v type="int" >       56 </v>
   <v type="int" >       57 </v>
   <v type="int" >       58 </v>
   <v type="int" >       59 </v>
   <v type="int" >       60 </v>
   <v type="int" >       61 </v>
   <v type="int" >       62 </v>
   <v type="int" >       63 </v>
   <v type="int" >       64 </v>
   <v type="int" >       65 </v>
   <v type="int" >       66 </v>
   <v type="int" >       67 </v>
   <v type="int" >       68 </v>
   <v type="int" >       69 </v>
   <v type="int" >       70 </v>
   <v type="int" >       71 </v>
   <v type="int" >       72 </v>
   <v type="int" >       73 </v>
   <v type="int" >       74 </v>
   <v type="int" >       75 </v>
   <v type="int" >       76 </v>
   <v type="int" >       77 </v>
   <v type="int" >       78 </v>
   <v type="int" >       79 </v>
   <v type="int" >       80 </v>
   <v type="int" >       81 </v>
   <v type="int" >       82 </v>
   <v type="int" >       83 </v>
   <v type="int" >       84 </v>
   <v type="int" >       85 </v>
   <v type="int" >       86 </v>
   <v type="int" >       87 </v>
   <v type="int" >       88 </v>
   <v type="int" >       89 </v>
   <v type="int" >       90 </v>
   <v type="int" >       91 </v>
   <v type="int" >       92 </v>
   <v type="int" >       93 </v>
   <v type="int" >       94 </v>
   <v type="int" >       95 </v>
   <v type="int" >       96 </v>
   <v type="int" >       97 </v>
   <v type="int" >       98 </v>
   <v type="int" >       99 </v>
   <v type="int" >      100 </v>
   <v type="int" >      101 </v>
   <v type="int" >      102 </v>
   <v type="int" >      103 </v>
   <v type="int" >      104 </v>
   <v type="int" >      105 </v>
   <v type="int" >      106 </v>
   <v type="int" >      107 </v>
   <v type="int" >      108 </v>
   <v type="int" >      109 </v>
   <v type="int" >      110 </v>
   <v type="int" >      111 </v>
   <v type="int" >      112 </v>
   <v type="int" >      113 </v>
   <v type="int" >      114 </v>
   <v type="int" >      115 </v>
   <v type="int" >      116 </v>
   <v type="int" >      117 </v>
   <v type="int" >      118 </v>
   <v type="int" >      119 </v>
   <v type="int" >      120 </v>
   <v type="int" >      121 </v>
   <v type="int" >      122 </v>
   <v type="int" >      123 </v>
   <v type="int" >      124 </v>
   <v type="int" >      125 </v>
   <v type="int" >      126 </v>
   <v type="int" >      127 </v>
   <v type="int" >      128 </v>
   <v type="int" >      129 </v>
   <v type="int" >      130 </v>
   <v type="int" >      131 </v>
   <v type="int" >      132 </v>
   <v type="int" >      133 </v>
   <v type="int" >      134 </v>
   <v type="int" >      135 </v>
   <v type="int" >      136 </v>
   <v type="int" >      137 </v>
   <v type="int" >      138 </v>
   <v type="int" >      139 </v>
   <v type="int" >      140 </v>
   <v type="int" >      141 </v>
   <v type="int" >      142 </v>
   <v type="int" >      143 </v>
   <v type="int" >      144 </v>
   <v type="int" >      145 </v>
   <v type="int" >      146 </v>
   <v type="int" >      147 </v>
   <v type="int" >      148 </v>
   <v type="int" >      149 </v>
   <v type="int" >      150 </v>
   <v type="int" >      151 </v>
   <v type="int" >      152 </v>
   <v type="int" >      153 </v>
   <v type="int" >      154 </v>
   <v type="int" >      155 </v>
   <v type="int" >      156 </v>
   <v type="int" >      157 </v>
   <v type="int" >      158 </v>
   <v type="int" >      159 </v>
   <v type="int" >      160 </v>
   <v type="int" >      161 </v>
   <v type="int" >      162 </v>
   <v type="int" >      163 </v>
   <v type="int" >      164 </v>
   <v type="int" >      165 </v>
   <v type="int" >      166 </v>
   <v type="int" >      167 </v>
   <v type="int" >      168 </v>
   <v type="int" >      169 </v>
   <v type="int" >      170 </v>
   <v type="int" >      171 </v>
   <v type="int" >      172 </v>
   <v type="int" >      173 </v>
   <v type="int" >      174 </v>
   <v type="int" >      175 </v>
   <v type="int" >      176 </v>
   <v type="int" >      177 </v>
   <v type="int" >      178 </v>
   <v type="int" >      179 </v>
   <v type="int" >      180 </v>
   <v type="int" >      181 </v>
   <v type="int" >      182 </v>
   <v type="int" >      183 </v>
   <v type="int" >      184 </v>
   <v type="int" >      185 </v>
   <v type="int" >      186 </v>
   <v type="int" >      187 </v>
   <v type="int" >      188 </v>
   <v type="int" >      189 </v>
   <v type="int" >      190 </v>
   <v type="int" >      191 </v>
   <v type="int" >      192 </v>
   <v type="int" >      193 </v>
   <v type="int" >      194 </v>
   <v type="int" >      195 </v>
   <v type="int" >      196 </v>
   <v type="int" >      197 </v>
   <v type="int" >      198 </v>
   <v type="int" >      199 </v>
   <v type="int" >      200 </v>
   <v type="int" >      201 </v>
   <v type="int" >      202 </v>
   <v type="int" >      203 </v>
   <v type="int" >      204 </v>
   <v type="int" >      205 </v>
   <v type="int" >      206 </v>
   <v type="int" >      207 </v>
   <v type="int" >      208 </v>
   <v type="int" >      209 </v>
   <v type="int" >      210 </v>
   <v type="int" >      211 </v>
   <v type="int" >      212 </v>
   <v type="int" >      213 </v>
   <v type="int" >      214 </v>
   <v type="int" >      215 </v>
   <v type="int" >      216 </v>
   <v type="int" >      217 </v>
   <v type="int" >      218 </v>
   <v type="int" >      219 </v>
   <v type="int" >      220 </v>
   <v type="int" >      221 </v>
   <v type="int" >      222 </v>
   <v type="int" >      223 </v>
   <v type="int" >      224 </v>
   <v type="int" >      225 </v>
   <v type="int" >      226 </v>
   <v type="int" >      227 </v>
   <v type="int" >      228 </v>
   <v type="int" >      229 </v>
   <v type="int" >      230 </v>
   <v type="int" >      231 </v>
   <v type="int" >      232 </v>
   <v type="int" >      233 </v>
   <v type="int" >      234 </v>
   <v type="int" >      235 </v>
   <v type="int" >      236 </v>
   <v type="int" >      237 </v>
   <v type="int" >      238 </v>
   <v type="int" >      239 </v>
   <v type="int" >      240 </v>
   <v type="int" >      241 </v>
   <v type="int" >      242 </v>
   <v type="int" >      243 </v>
   <v type="int" >      244 </v>
   <v type="int" >      245 </v>
   <v type="int" >      246 </v>
   <v type="int" >      247 </v>
   <v type="int" >      248 </v>
   <v type="int" >      249 </v>
   <v type="int" >      250 </v>
  </varray>
 </primitive_cell>
 <kpoints>
  <generation param="Gamma">
   <v type="int" name="divisions">       2        2        2 </v>
   <v name="usershift">      0.00000000       0.00000000       0.00000000 </v>
   <v name="genvec1">      0.50000000       0.00000000       0.00000000 </v>
   <v name="genvec2">      0.00000000       0.50000000       0.00000000 </v>
   <v name="genvec3">      0.00000000       0.00000000       0.50000000 </v>
   <v name="shift">      0.00000000       0.00000000       0.00000000 </v>
  </generation>
  <varray name="kpointlist" >
   <v>       0.00000000       0.00000000       0.00000000 </v>
   <v>       0.50000000       0.00000000       0.00000000 </v>
   <v>       0.50000000       0.50000000       0.00000000 </v>
   <v>       0.50000000       0.50000000       0.50000000 </v>
  </varray>
  <varray name="weights" >
   <v>       0.12500000 </v>
   <v>       0.37500000 </v>
   <v>       0.37500000 </v>
   <v>       0.12500000 </v>
  </varray>
 </kpoints>
 <parameters>
  <separator name="general" >
   <i type="string" name="SYSTEM">NiAl</i>
   <i type="logical" name="LCOMPAT"> F  </i>
  </separator>
  <separator name="electronic" >
   <i type="string" name="PREC">normal</i>
   <i name="ENMAX">    360.00000000</i>
   <i name="ENAUG">   1139.60900000</i>
   <i name="EDIFF">      0.00000010</i>
   <i type="int" name="IALGO">    38</i>
   <i type="int" name="IWAVPR">    10</i>
   <i type="int" name="NBANDS">  1201</i>
   <i type="int" name="NBANDSLOW">    -1</i>
   <i type="int" name="NBANDSHIGH">    -1</i>
   <i name="NELECT">   2000.00000000</i>
   <i type="int" name="TURBO">     0</i>
   <i type="int" name="IRESTART">     0</i>
   <i type="int" name="NREBOOT">     0</i>
   <i type="int" name="NMIN">     0</i>
   <i name="EREF">      0.00000000</i>
   <separator name="electronic smearing" >
    <i type="int" name="ISMEAR">     0</i>
    <i name="SIGMA">      0.05000000</i>
    <i name="KSPACING">      0.50000000</i>
    <i type="logical" name="KGAMMA"> T  </i>
    <i type="logical" name="KBLOWUP"> T  </i>
   </separator>
   <separator name="electronic projectors" >
    <i type="logical" name="LREAL"> T  </i>
    <v name="ROPT">     -0.00050000     -0.00050000</v>
    <i type="int" name="LMAXPAW">  -100</i>
    <i type="int" name="LMAXMIX">     2</i>
    <i type="logical" name="NLSPLINE"> F  </i>
   </separator>
   <separator name="electronic startup" >
    <i type="int" name="ISTART">     0</i>
    <i type="int" name="ICHARG">     2</i>
    <i type="int" name="INIWAV">     1</i>
   </separator>
   <separator name="electronic spin" >
    <i type="int" name="ISPIN">     2</i>
    <i type="logical" name="LNONCOLLINEAR"> F  </i>
    <v name="MAGMOM">      2.00000000     -2.00000000      2.00000000     -2.00000000      2.00000000     -2.00000000      2.00000000     -2.00000000      2.00000000     -2.00000000      2.00000000     -2.00000000      2.00000000     -2.00000000      2.00000000     -2.00000000      2.00000000     -2.00000000      2.00000000     -2.00000000
      2.00000000     -2.00000000      2.00000000     -2.00000000      2.00000000     -2.00000000      2.00000000     -2.00000000      2.00000000     -2.00000000      2.00000000     -2.00000000      2.00000000     -2.00000000      2.00000000     -2.00000000      2.00000000     -2.00000000      2.00000000     -2.00000000
      2.00000000     -2.00000000      2.00000000     -2.00000000      2.00000000     -2.00000000      2.00000000     -2.00000000      2.00000000     -2.00000000      2.00000000     -2.00000000      2.00000000     -2.00000000      2.00000000     -2.00000000      2.00000000     -2.00000000      2.00000000     -2.00000000
      2.00000000     -2.00000000      2.00000000     -2.00000000      2.00000000     -2.00000000      2.00000000     -2.00000000      2.00000000     -2.00000000      2.00000000     -2.00000000      2.00000000     -2.00000000      2.00000000     -2.00000000      2.00000000     -2.00000000      2.00000000     -2.00000000
      2.00000000     -2.00000000      2.00000000     -2.00000000      2.00000000     -2.00000000      2.00000000     -2.00000000      2.00000000     -2.00000000      2.00000000     -2.00000000      2.00000000     -2.00000000      2.00000000     -2.00000000      2.00000000     -2.00000000      2.00000000     -2.00000000
      2.00000000     -2.00000000      2.00000000     -2.00000000      2.00000000     -2.00000000      2.00000000     -2.00000000      2.00000000     -2.00000000      2.00000000     -2.00000000      2.00000000     -2.00000000      2.00000000     -2.00000000      2.00000000     -2.00000000      2.00000000     -2.00000000
      2.00000000     -2.00000000      2.00000000     -2.00000000      2.00000000      0.00000000      0.00000000      0.00000000      0.00000000      0.00000000      0.00000000      0.00000000      0.00000000      0.00000000      0.00000000      0.00000000      0.00000000      0.00000000      0.00000000      0.00000000
      0.00000000      0.00000000      0.00000000      0.00000000      0.00000000      0.00000000      0.00000000      0.00000000      0.00000000      0.00000000      0.00000000      0.00000000      0.00000000      0.00000000      0.00000000      0.00000000      0.00000000      0.00000000      0.00000000      0.00000000
      0.00000000      0.00000000      0.00000000      0.00000000      0.00000000      0.00000000      0.00000000      0.00000000      0.00000000      0.00000000      0.00000000      0.00000000      0.00000000      0.00000000      0.00000000      0.00000000      0.00000000      0.00000000      0.00000000      0.00000000
      0.00000000      0.00000000      0.00000000      0.00000000      0.00000000      0.00000000      0.00000000      0.00000000      0.00000000      0.00000000      0.00000000      0.00000000      0.00000000      0.00000000      0.00000000      0.00000000      0.00000000      0.00000000      0.00000000      0.00000000
      0.00000000      0.00000000      0.00000000      0.00000000      0.00000000      0.00000000      0.00000000      0.00000000      0.00000000      0.00000000      0.00000000      0.00000000      0.00000000      0.00000000      0.00000000      0.00000000      0.00000000      0.00000000      0.00000000      0.00000000
      0.00000000      0.00000000      0.00000000      0.00000000      0.00000000      0.00000000      0.00000000      0.00000000      0.00000000      0.00000000      0.00000000      0.00000000      0.00000000      0.00000000      0.00000000      0.00000000      0.00000000      0.00000000      0.00000000      0.00000000
      0.00000000      0.00000000      0.00000000      0.00000000      0.00000000      0.00000000      0.00000000      0.00000000      0.00000000      0.00000000</v>
    <i name="NUPDOWN">     -1.00000000</i>
    <i type="logical" name="LSORBIT"> F  </i>
    <v name="SAXIS">      0.00000000      0.00000000      1.00000000</v>
    <i type="logical" name="LSPIRAL"> F  </i>
    <v name="QSPIRAL">      0.00000000      0.00000000      0.00000000</v>
    <i type="logical" name="LZEROZ"> F  </i>
   </separator>
   <separator name="electronic exchange-correlation" >
    <i type="logical" name="LASPH"> F  </i>
    <i type="logical" name="LMETAGGA"> F  </i>
   </separator>
   <separator name="electronic convergence" >
    <i type="int" name="NELM">    60</i>
    <i type="int" name="NELMDL">    -5</i>
    <i type="int" name="NELMIN">     6</i>
    <i name="ENINI">    360.00000000</i>
    <separator name="electronic convergence detail" >
     <i type="logical" name="LDIAG"> T  </i>
     <i type="logical" name="LSUBROT"> F  </i>
     <i name="WEIMIN">      0.00000000</i>
     <i name="EBREAK">      0.00000000</i>
     <i name="DEPER">      0.30000000</i>
     <i type="int" name="NRMM">     4</i>
     <i name="TIME">      0.40000000</i>
    </separator>
   </separator>
   <separator name="electronic mixer" >
    <i name="AMIX">      0.40000000</i>
    <i name="BMIX">      1.00000000</i>
    <i name="AMIN">      0.10000000</i>
    <i name="AMIX_MAG">      1.60000000</i>
    <i name="BMIX_MAG">      1.00000000</i>
    <separator name="electronic mixer details" >
     <i type="int" name="IMIX">     4</i>
     <i type="logical" name="MIXFIRST"> F  </i>
     <i type="int" name="MAXMIX">   -45</i>
     <i name="WC">    100.00000000</i>
     <i type="int" name="INIMIX">     1</i>
     <i type="int" name="MIXPRE">     1</i>
     <i type="int" name="MREMOVE">     5</i>
    </separator>
   </separator>
   <separator name="electronic dipolcorrection" >
    <i type="logical" name="LDIPOL"> F  </i>
    <i type="logical" name="LMONO"> F  </i>
    <i type="int" name="IDIPOL">     0</i>
    <i name="EPSILON">      1.00000000</i>
    <v name="DIPOL">   -100.00000000   -100.00000000   -100.00000000</v>
    <i name="EFIELD">      0.00000000</i>
   </separator>
  </separator>
  <separator name="grids" >
   <i type="int" name="NGX">    50</i>
   <i type="int" name="NGY">    50</i>
   <i type="int" name="NGZ">    50</i>
   <i type="int" name="NGXF">   100</i>
   <i type="int" name="NGYF">   100</i>
   <i type="int" name="NGZF">   100</i>
   <i type="logical" name="ADDGRID"> F  </i>
  </separator>
  <separator name="ionic" >
   <i type="int" name="NSW">     0</i>
   <i type="int" name="IBRION">    -1</i>
   <i type="int" name="MDALGO">     0</i>
   <i type="int" name="ISIF">     2</i>
   <i name="PSTRESS">      0.00000000</i>
   <i name="EDIFFG">      0.00000100</i>
   <i type="int" name="NFREE">     0</i>
   <i name="POTIM">      0.50000000</i>
   <i name="SMASS">     -3.00000000</i>
   <i name="SCALEE">      1.00000000</i>
  </separator>
  <separator name="ionic md" >
   <i name="TEBEG">      0.00010000</i>
   <i name="TEEND">      0.00010000</i>
   <i type="int" name="NBLOCK">     1</i>
   <i type="int" name="KBLOCK">     1</i>
   <i type="int" name="NPACO">   256</i>
   <i name="APACO">     16.00000000</i>
  </separator>
  <separator name="symmetry" >
   <i type="int" name="ISYM">     2</i>
   <i name="SYMPREC">      0.00001000</i>
  </separator>
  <separator name="dos" >
   <i type="int" name="LORBIT">     0</i>
   <v name="RWIGS">     -1.00000000     -1.00000000</v>
   <i type="int" name="NEDOS">   301</i>
   <i name="EMIN">     10.00000000</i>
   <i name="EMAX">    -10.00000000</i>
   <i name="EFERMI">      0.00000000</i>
  </separator>
  <separator name="writing" >
   <i type="int" name="NWRITE">     2</i>
   <i type="logical" name="LWAVE"> F  </i>
   <i type="logical" name="LDOWNSAMPLE"> F  </i>
   <i type="logical" name="LCHARG"> F  </i>
   <i type="logical" name="LPARD"> F  </i>
   <i type="logical" name="LVTOT"> F  </i>
   <i type="logical" name="LVHAR"> F  </i>
   <i type="logical" name="LELF"> F  </i>
   <i type="logical" name="LOPTICS"> F  </i>
   <v name="STM">      0.00000000      0.00000000      0.00000000      0.00000000      0.00000000      0.00000000      0.00000000</v>
  </separator>
  <separator name="performance" >
   <i type="int" name="NPAR">     1</i>
   <i type="int" name="NSIM">     4</i>
   <i type="int" name="NBLK">    -1</i>
   <i type="logical" name="LPLANE"> T  </i>
   <i type="logical" name="LSCALAPACK"> T  </i>
   <i type="logical" name="LSCAAWARE"> F  </i>
   <i type="logical" name="LSCALU"> F  </i>
   <i type="logical" name="LASYNC"> F  </i>
   <i type="logical" name="LORBITALREAL"> F  </i>
  </separator>
  <separator name="miscellaneous" >
   <i type="int" name="IDIOT">     3</i>
   <i type="int" name="PHON_NSTRUCT">    -1</i>
   <i type="logical" name="LMUSIC"> F  </i>
   <v name="POMASS">     58.69000000     16.00000000</v>
   <v name="DARWINR">      0.00000000      0.00000000</v>
   <v name="DARWINV">      1.00000000      1.00000000</v>
   <i type="logical" name="LCORR"> T  </i>
  </separator>
  <i type="logical" name="GGA_COMPAT"> T  </i>
  <i type="logical" name="LBERRY"> F  </i>
  <i type="int" name="ICORELEVEL">     0</i>
  <i type="logical" name="LDAU"> F  </i>
  <i type="int" name="I_CONSTRAINED_M">     0</i>
  <separator name="electronic exchange-correlation" >
   <i type="string" name="GGA">--</i>
   <i type="int" name="VOSKOWN">     0</i>
   <i type="logical" name="LHFCALC"> F  </i>
   <i type="string" name="PRECFOCK"></i>
   <i type="logical" name="LSYMGRAD"> F  </i>
   <i type="logical" name="LHFONE"> F  </i>
   <i type="logical" name="LRHFCALC"> F  </i>
   <i type="logical" name="LTHOMAS"> F  </i>
   <i type="logical" name="LMODELHF"> F  </i>
   <i type="logical" name="LFOCKACE"> F  </i>
   <i name="ENCUT4O">     -1.00000000</i>
   <i type="int" name="EXXOEP">     0</i>
   <i type="int" name="FOURORBIT">     0</i>
   <i name="AEXX">      0.00000000</i>
   <i name="HFALPHA">      0.00000000</i>
   <i name="MCALPHA">      0.00000000</i>
   <i name="ALDAX">      1.00000000</i>
   <i name="AGGAX">      1.00000000</i>
   <i name="ALDAC">      1.00000000</i>
   <i name="AGGAC">      1.00000000</i>
   <i type="int" name="NKREDX">     1</i>
   <i type="int" name="NKREDY">     1</i>
   <i type="int" name="NKREDZ">     1</i>
   <i type="logical" name="SHIFTRED"> F  </i>
   <i type="logical" name="ODDONLY"> F  </i>
   <i type="logical" name="EVENONLY"> F  </i>
   <i type="int" name="LMAXFOCK">     0</i>
   <i type="int" name="NMAXFOCKAE">     0</i>
   <i type="logical" name="LFOCKAEDFT"> F  </i>
   <i name="HFSCREEN">      0.00000000</i>
   <i name="HFSCREENC">      0.00000000</i>
   <i type="int" name="NBANDSGWLOW">     0</i>
  </separator>
  <separator name="vdW DFT" >
   <i type="logical" name="LUSE_VDW"> F  </i>
   <i name="Zab_VDW">     -0.84910000</i>
   <i name="PARAM1">      0.12340000</i>
   <i name="PARAM2">      1.00000000</i>
   <i name="PARAM3">      0.00000000</i>
  </separator>
  <separator name="model GW" >
   <i type="int" name="MODEL_GW">     0</i>
   <i name="MODEL_EPS0">      2.81137307</i>
   <i name="MODEL_ALPHA">      1.00000000</i>
  </separator>
  <separator name="linear response parameters" >
   <i type="logical" name="LEPSILON"> F  </i>
   <i type="logical" name="LRPA"> F  </i>
   <i type="logical" name="LNABLA"> F  </i>
   <i type="logical" name="LVEL"> F  </i>
   <i type="int" name="KINTER">     0</i>
   <i name="CSHIFT">      0.10000000</i>
   <i name="OMEGAMAX">     -1.00000000</i>
   <i name="DEG_THRESHOLD">      0.00200000</i>
   <i name="RTIME">     -0.10000000</i>
   <i name="WPLASMAI">      0.00000000</i>
   <v name="DFIELD">      0.00000000      0.00000000      0.00000000</v>
   <v name="WPLASMA">      0.00000000      0.00000000      0.00000000      0.00000000      0.00000000      0.00000000      0.00000000      0.00000000      0.00000000</v>
  </separator>
  <separator name="orbital magnetization" >
   <i type="logical" name="NUCIND"> F  </i>
   <v name="MAGPOS">      0.00000000      0.00000000      0.00000000</v>
   <i type="logical" name="LNICSALL"> T  </i>
   <i type="logical" name="ORBITALMAG"> F  </i>
   <i type="logical" name="LMAGBLOCH"> F  </i>
   <i type="logical" name="LCHIMAG"> F  </i>
   <i type="logical" name="LGAUGE"> T  </i>
   <i type="int" name="MAGATOM">     0</i>
   <v name="MAGDIPOL">      0.00000000      0.00000000      0.00000000</v>
   <v name="AVECCONST">      0.00000000      0.00000000      0.00000000</v>
  </separator>
  <separator name="response functions" >
   <i type="logical" name="LFINITE_TEMPERATURE"> F  </i>
   <i type="logical" name="LADDER"> F  </i>
   <i type="logical" name="LRPAFORCE"> F  </i>
   <i type="logical" name="LFXC"> F  </i>
   <i type="logical" name="LHARTREE"> T  </i>
   <i type="int" name="IBSE">     0</i>
   <v type="int" name="KPOINT">    -1     0     0     0</v>
   <i type="logical" name="LTCTC"> F  </i>
   <i type="logical" name="LTCTE"> F  </i>
   <i type="logical" name="LTETE"> F  </i>
   <i type="logical" name="LTRIPLET"> F  </i>
   <i type="logical" name="LFXCEPS"> F  </i>
   <i type="logical" name="LFXHEG"> F  </i>
   <i type="int" name="NATURALO">     2</i>
   <i type="logical" name="LHOLEGF"> F  </i>
   <i type="logical" name="L2ORDER"> F  </i>
   <i type="logical" name="LDMP1"> F  </i>
   <i type="logical" name="LMP2LT"> F  </i>
   <i type="logical" name="LSMP2LT"> F  </i>
   <i type="logical" name="LGWLF"> F  </i>
   <i name="ENCUTGW">     -2.00000000</i>
   <i name="ENCUTGWSOFT">     -2.00000000</i>
   <i name="ENCUTLF">     -1.00000000</i>
   <i type="logical" name="LESF_SPLINES"> F  </i>
   <i type="int" name="LMAXMP2">    -1</i>
   <i name="SCISSOR">      0.00000000</i>
   <i type="int" name="NOMEGA">     0</i>
   <i type="int" name="NOMEGAR">     0</i>
   <i type="int" name="NBANDSGW">    -1</i>
   <i type="int" name="NBANDSO">    -1</i>
   <i type="int" name="NBANDSV">    -1</i>
   <i type="int" name="NELM">     1</i>
   <i type="int" name="NELMHF">     1</i>
   <i type="int" name="DIM">     3</i>
   <i type="int" name="IESPILON">     4</i>
   <i type="int" name="ANTIRES">     0</i>
   <i name="OMEGAMAX">    -30.00000000</i>
   <i name="OMEGAMIN">    -30.00000000</i>
   <i name="OMEGATL">   -200.00000000</i>
   <i type="int" name="OMEGAGRID">     0</i>
   <i name="CSHIFT">     -0.10000000</i>
   <i type="logical" name="LSELFENERGY"> F  </i>
   <i type="logical" name="LSPECTRAL"> F  </i>
   <i type="logical" name="LSPECTRALGW"> F  </i>
   <i type="logical" name="LSINGLES"> F  </i>
   <i type="logical" name="LFERMIGW"> F  </i>
   <i type="logical" name="ODDONLYGW"> F  </i>
   <i type="logical" name="EVENONLYGW"> F  </i>
   <i type="int" name="NKREDLFX">     1</i>
   <i type="int" name="NKREDLFY">     1</i>
   <i type="int" name="NKREDLFZ">     1</i>
   <i type="int" name="MAXMEM">  2800</i>
   <i type="int" name="TELESCOPE">     0</i>
   <i type="int" name="NTAUPAR">    -1</i>
   <i type="int" name="NOMEGAPAR">    -1</i>
   <i name="DAMP_NEWTON">      0.80000001</i>
   <i name="LAMBDA">      1.00000000</i>
  </separator>
  <separator name="External order field" >
   <i name="OFIELD_KAPPA">      0.00000000</i>
   <v name="OFIELD_K">      0.00000000      0.00000000      0.00000000</v>
   <i name="OFIELD_Q6_NEAR">      0.00000000</i>
   <i name="OFIELD_Q6_FAR">      0.00000000</i>
   <i name="OFIELD_A">      0.00000000</i>
  </separator>
  <separator name="solvation model" >
   <i type="logical" name="LSOL"> F  </i>
  </separator>
 </parameters>
 <atominfo>
  <atoms>     250 </atoms>
  <types>       2 </types>
  <array name="atoms" >
   <dimension dim="1">ion</dimension>
   <field type="string">element</field>
   <field type="int">atomtype</field>
   <set>
    <rc><c>Ni</c><c>   1</c></rc>
    <rc><c>Ni</c><c>   1</c></rc>
    <rc><c>Ni</c><c>   1</c></rc>
    <rc><c>Ni</c><c>   1</c></rc>
    <rc><c>Ni</c><c>   1</c></rc>
    <rc><c>Ni</c><c>   1</c></rc>
    <rc><c>Ni</c><c>   1</c></rc>
    <rc><c>Ni</c><c>   1</c></rc>
    <rc><c>Ni</c><c>   1</c></rc>
    <rc><c>Ni</c><c>   1</c></rc>
    <rc><c>Ni</c><c>   1</c></rc>
    <rc><c>Ni</c><c>   1</c></rc>
    <rc><c>Ni</c><c>   1</c></rc>
    <rc><c>Ni</c><c>   1</c></rc>
    <rc><c>Ni</c><c>   1</c></rc>
    <rc><c>Ni</c><c>   1</c></rc>
    <rc><c>Ni</c><c>   1</c></rc>
    <rc><c>Ni</c><c>   1</c></rc>
    <rc><c>Ni</c><c>   1</c></rc>
    <rc><c>Ni</c><c>   1</c></rc>
    <rc><c>Ni</c><c>   1</c></rc>
    <rc><c>Ni</c><c>   1</c></rc>
    <rc><c>Ni</c><c>   1</c></rc>
    <rc><c>Ni</c><c>   1</c></rc>
    <rc><c>Ni</c><c>   1</c></rc>
    <rc><c>Ni</c><c>   1</c></rc>
    <rc><c>Ni</c><c>   1</c></rc>
    <rc><c>Ni</c><c>   1</c></rc>
    <rc><c>Ni</c><c>   1</c></rc>
    <rc><c>Ni</c><c>   1</c></rc>
    <rc><c>Ni</c><c>   1</c></rc>
    <rc><c>Ni</c><c>   1</c></rc>
    <rc><c>Ni</c><c>   1</c></rc>
    <rc><c>Ni</c><c>   1</c></rc>
    <rc><c>Ni</c><c>   1</c></rc>
    <rc><c>Ni</c><c>   1</c></rc>
    <rc><c>Ni</c><c>   1</c></rc>
    <rc><c>Ni</c><c>   1</c></rc>
    <rc><c>Ni</c><c>   1</c></rc>
    <rc><c>Ni</c><c>   1</c></rc>
    <rc><c>Ni</c><c>   1</c></rc>
    <rc><c>Ni</c><c>   1</c></rc>
    <rc><c>Ni</c><c>   1</c></rc>
    <rc><c>Ni</c><c>   1</c></rc>
    <rc><c>Ni</c><c>   1</c></rc>
    <rc><c>Ni</c><c>   1</c></rc>
    <rc><c>Ni</c><c>   1</c></rc>
    <rc><c>Ni</c><c>   1</c></rc>
    <rc><c>Ni</c><c>   1</c></rc>
    <rc><c>Ni</c><c>   1</c></rc>
    <rc><c>Ni</c><c>   1</c></rc>
    <rc><c>Ni</c><c>   1</c></rc>
    <rc><c>Ni</c><c>   1</c></rc>
    <rc><c>Ni</c><c>   1</c></rc>
    <rc><c>Ni</c><c>   1</c></rc>
    <rc><c>Ni</c><c>   1</c></rc>
    <rc><c>Ni</c><c>   1</c></rc>
    <rc><c>Ni</c><c>   1</c></rc>
    <rc><c>Ni</c><c>   1</c></rc>
    <rc><c>Ni</c><c>   1</c></rc>
    <rc><c>Ni</c><c>   1</c></rc>
    <rc><c>Ni</c><c>   1</c></rc>
    <rc><c>Ni</c><c>   1</c></rc>
    <rc><c>Ni</c><c>   1</c></rc>
    <rc><c>Ni</c><c>   1</c></rc>
    <rc><c>Ni</c><c>   1</c></rc>
    <rc><c>Ni</c><c>   1</c></rc>
    <rc><c>Ni</c><c>   1</c></rc>
    <rc><c>Ni</c><c>   1</c></rc>
    <rc><c>Ni</c><c>   1</c></rc>
    <rc><c>Ni</c><c>   1</c></rc>
    <rc><c>Ni</c><c>   1</c></rc>
    <rc><c>Ni</c><c>   1</c></rc>
    <rc><c>Ni</c><c>   1</c></rc>
    <rc><c>Ni</c><c>   1</c></rc>
    <rc><c>Ni</c><c>   1</c></rc>
    <rc><c>Ni</c><c>   1</c></rc>
    <rc><c>Ni</c><c>   1</c></rc>
    <rc><c>Ni</c><c>   1</c></rc>
    <rc><c>Ni</c><c>   1</c></rc>
    <rc><c>Ni</c><c>   1</c></rc>
    <rc><c>Ni</c><c>   1</c></rc>
    <rc><c>Ni</c><c>   1</c></rc>
    <rc><c>Ni</c><c>   1</c></rc>
    <rc><c>Ni</c><c>   1</c></rc>
    <rc><c>Ni</c><c>   1</c></rc>
    <rc><c>Ni</c><c>   1</c></rc>
    <rc><c>Ni</c><c>   1</c></rc>
    <rc><c>Ni</c><c>   1</c></rc>
    <rc><c>Ni</c><c>   1</c></rc>
    <rc><c>Ni</c><c>   1</c></rc>
    <rc><c>Ni</c><c>   1</c></rc>
    <rc><c>Ni</c><c>   1</c></rc>
    <rc><c>Ni</c><c>   1</c></rc>
    <rc><c>Ni</c><c>   1</c></rc>
    <rc><c>Ni</c><c>   1</c></rc>
    <rc><c>Ni</c><c>   1</c></rc>
    <rc><c>Ni</c><c>   1</c></rc>
    <rc><c>Ni</c><c>   1</c></rc>
    <rc><c>Ni</c><c>   1</c></rc>
    <rc><c>Ni</c><c>   1</c></rc>
    <rc><c>Ni</c><c>   1</c></rc>
    <rc><c>Ni</c><c>   1</c></rc>
    <rc><c>Ni</c><c>   1</c></rc>
    <rc><c>Ni</c><c>   1</c></rc>
    <rc><c>Ni</c><c>   1</c></rc>
    <rc><c>Ni</c><c>   1</c></rc>
    <rc><c>Ni</c><c>   1</c></rc>
    <rc><c>Ni</c><c>   1</c></rc>
    <rc><c>Ni</c><c>   1</c></rc>
    <rc><c>Ni</c><c>   1</c></rc>
    <rc><c>Ni</c><c>   1</c></rc>
    <rc><c>Ni</c><c>   1</c></rc>
    <rc><c>Ni</c><c>   1</c></rc>
    <rc><c>Ni</c><c>   1</c></rc>
    <rc><c>Ni</c><c>   1</c></rc>
    <rc><c>Ni</c><c>   1</c></rc>
    <rc><c>Ni</c><c>   1</c></rc>
    <rc><c>Ni</c><c>   1</c></rc>
    <rc><c>Ni</c><c>   1</c></rc>
    <rc><c>Ni</c><c>   1</c></rc>
    <rc><c>Ni</c><c>   1</c></rc>
    <rc><c>Ni</c><c>   1</c></rc>
    <rc><c>Ni</c><c>   1</c></rc>
    <rc><c>Ni</c><c>   1</c></rc>
    <rc><c>O </c><c>   2</c></rc>
    <rc><c>O </c><c>   2</c></rc>
    <rc><c>O </c><c>   2</c></rc>
    <rc><c>O </c><c>   2</c></rc>
    <rc><c>O </c><c>   2</c></rc>
    <rc><c>O </c><c>   2</c></rc>
    <rc><c>O </c><c>   2</c></rc>
    <rc><c>O </c><c>   2</c></rc>
    <rc><c>O </c><c>   2</c></rc>
    <rc><c>O </c><c>   2</c></rc>
    <rc><c>O </c><c>   2</c></rc>
    <rc><c>O </c><c>   2</c></rc>
    <rc><c>O </c><c>   2</c></rc>
    <rc><c>O </c><c>   2</c></rc>
    <rc><c>O </c><c>   2</c></rc>
    <rc><c>O </c><c>   2</c></rc>
    <rc><c>O </c><c>   2</c></rc>
    <rc><c>O </c><c>   2</c></rc>
    <rc><c>O </c><c>   2</c></rc>
    <rc><c>O </c><c>   2</c></rc>
    <rc><c>O </c><c>   2</c></rc>
    <rc><c>O </c><c>   2</c></rc>
    <rc><c>O </c><c>   2</c></rc>
    <rc><c>O </c><c>   2</c></rc>
    <rc><c>O </c><c>   2</c></rc>
    <rc><c>O </c><c>   2</c></rc>
    <rc><c>O </c><c>   2</c></rc>
    <rc><c>O </c><c>   2</c></rc>
    <rc><c>O </c><c>   2</c></rc>
    <rc><c>O </c><c>   2</c></rc>
    <rc><c>O </c><c>   2</c></rc>
    <rc><c>O </c><c>   2</c></rc>
    <rc><c>O </c><c>   2</c></rc>
    <rc><c>O </c><c>   2</c></rc>
    <rc><c>O </c><c>   2</c></rc>
    <rc><c>O </c><c>   2</c></rc>
    <rc><c>O </c><c>   2</c></rc>
    <rc><c>O </c><c>   2</c></rc>
    <rc><c>O </c><c>   2</c></rc>
    <rc><c>O </c><c>   2</c></rc>
    <rc><c>O </c><c>   2</c></rc>
    <rc><c>O </c><c>   2</c></rc>
    <rc><c>O </c><c>   2</c></rc>
    <rc><c>O </c><c>   2</c></rc>
    <rc><c>O </c><c>   2</c></rc>
    <rc><c>O </c><c>   2</c></rc>
    <rc><c>O </c><c>   2</c></rc>
    <rc><c>O </c><c>   2</c></rc>
    <rc><c>O </c><c>   2</c></rc>
    <rc><c>O </c><c>   2</c></rc>
    <rc><c>O </c><c>   2</c></rc>
    <rc><c>O </c><c>   2</c></rc>
    <rc><c>O </c><c>   2</c></rc>
    <rc><c>O </c><c>   2</c></rc>
    <rc><c>O </c><c>   2</c></rc>
    <rc><c>O </c><c>   2</c></rc>
    <rc><c>O </c><c>   2</c></rc>
    <rc><c>O </c><c>   2</c></rc>
    <rc><c>O </c><c>   2</c></rc>
    <rc><c>O </c><c>   2</c></rc>
    <rc><c>O </c><c>   2</c></rc>
    <rc><c>O </c><c>   2</c></rc>
    <rc><c>O </c><c>   2</c></rc>
    <rc><c>O </c><c>   2</c></rc>
    <rc><c>O </c><c>   2</c></rc>
    <rc><c>O </c><c>   2</c></rc>
    <rc><c>O </c><c>   2</c></rc>
    <rc><c>O </c><c>   2</c></rc>
    <rc><c>O </c><c>   2</c></rc>
    <rc><c>O </c><c>   2</c></rc>
    <rc><c>O </c><c>   2</c></rc>
    <rc><c>O </c><c>   2</c></rc>
    <rc><c>O </c><c>   2</c></rc>
    <rc><c>O </c><c>   2</c></rc>
    <rc><c>O </c><c>   2</c></rc>
    <rc><c>O </c><c>   2</c></rc>
    <rc><c>O </c><c>   2</c></rc>
    <rc><c>O </c><c>   2</c></rc>
    <rc><c>O </c><c>   2</c></rc>
    <rc><c>O </c><c>   2</c></rc>
    <rc><c>O </c><c>   2</c></rc>
    <rc><c>O </c><c>   2</c></rc>
    <rc><c>O </c><c>   2</c></rc>
    <rc><c>O </c><c>   2</c></rc>
    <rc><c>O </c><c>   2</c></rc>
    <rc><c>O </c><c>   2</c></rc>
    <rc><c>O </c><c>   2</c></rc>
    <rc><c>O </c><c>   2</c></rc>
    <rc><c>O </c><c>   2</c></rc>
    <rc><c>O </c><c>   2</c></rc>
    <rc><c>O </c><c>   2</c></rc>
    <rc><c>O </c><c>   2</c></rc>
    <rc><c>O </c><c>   2</c></rc>
    <rc><c>O </c><c>   2</c></rc>
    <rc><c>O </c><c>   2</c></rc>
    <rc><c>O </c><c>   2</c></rc>
    <rc><c>O </c><c>   2</c></rc>
    <rc><c>O </c><c>   2</c></rc>
    <rc><c>O </c><c>   2</c></rc>
    <rc><c>O </c><c>   2</c></rc>
    <rc><c>O </c><c>   2</c></rc>
    <rc><c>O </c><c>   2</c></rc>
    <rc><c>O </c><c>   2</c></rc>
    <rc><c>O </c><c>   2</c></rc>
    <rc><c>O </c><c>   2</c></rc>
    <rc><c>O </c><c>   2</c></rc>
    <rc><c>O </c><c>   2</c></rc>
    <rc><c>O </c><c>   2</c></rc>
    <rc><c>O </c><c>   2</c></rc>
    <rc><c>O </c><c>   2</c></rc>
    <rc><c>O </c><c>   2</c></rc>
    <rc><c>O </c><c>   2</c></rc>
    <rc><c>O </c><c>   2</c></rc>
    <rc><c>O </c><c>   2</c></rc>
    <rc><c>O </c><c>   2</c></rc>
    <rc><c>O </c><c>   2</c></rc>
    <rc><c>O </c><c>   2</c></rc>
    <rc><c>O </c><c>   2</c></rc>
    <rc><c>O </c><c>   2</c></rc>
    <rc><c>O </c><c>   2</c></rc>
    <rc><c>O </c><c>   2</c></rc>
    <rc><c>O </c><c>   2</c></rc>
    <rc><c>O </c><c>   2</c></rc>
    <rc><c>O </c><c>   2</c></rc>
    <rc><c>O </c><c>   2</c></rc>
   </set>
  </array>
  <array name="atomtypes" >
   <dimension dim="1">type</dimension>
   <field type="int">atomspertype</field>
   <field type="string">element</field>
   <field>mass</field>
   <field>valence</field>
   <field type="string">pseudopotential</field>
   <set>
    <rc><c> 125</c><c>Ni</c><c>     58.69000000</c><c>     10.00000000</c><c>  PAW Ni_GW 31Mar2010                   </c></rc>
    <rc><c> 125</c><c>O </c><c>     16.00000000</c><c>      6.00000000</c><c>  PAW O_GW 19Mar2012                    </c></rc>
   </set>
  </array>
 </atominfo>
 <structure name="initialpos" >
  <crystal>
   <varray name="basis" >
    <v>      10.54150000       0.00000000       0.00000000 </v>
    <v>       0.00000000      10.54150000       0.00000000 </v>
    <v>       0.00000000       0.00000000      10.54150000 </v>
   </varray>
   <i name="volume">   1171.40544735 </i>
   <varray name="rec_basis" >
    <v>       0.09486316       0.00000000       0.00000000 </v>
    <v>       0.00000000       0.09486316       0.00000000 </v>
    <v>       0.00000000       0.00000000       0.09486316 </v>
   </varray>
  </crystal>
  <varray name="positions" >
   <v>       0.00000000       0.00000000       0.00000000 </v>
   <v>       0.00000000       0.00000000       0.20000000 </v>
   <v>       0.00000000       0.00000000       0.40000000 </v>
   <v>       0.00000000       0.00000000       0.60000000 </v>
   <v>       0.00000000       0.00000000       0.80000000 </v>
   <v>       0.00000000       0.20000000       0.00000000 </v>
   <v>       0.00000000       0.20000000       0.20000000 </v>
   <v>       0.00000000       0.20000000       0.40000000 </v>
   <v>       0.00000000       0.20000000       0.60000000 </v>
   <v>       0.00000000       0.20000000       0.80000000 </v>
   <v>       0.00000000       0.40000000       0.00000000 </v>
   <v>       0.00000000       0.40000000       0.20000000 </v>
   <v>       0.00000000       0.40000000       0.40000000 </v>
   <v>       0.00000000       0.40000000       0.60000000 </v>
   <v>       0.00000000       0.40000000       0.80000000 </v>
   <v>       0.00000000       0.60000000       0.00000000 </v>
   <v>       0.00000000       0.60000000       0.20000000 </v>
   <v>       0.00000000       0.60000000       0.40000000 </v>
   <v>       0.00000000       0.60000000       0.60000000 </v>
   <v>       0.00000000       0.60000000       0.80000000 </v>
   <v>       0.00000000       0.80000000       0.00000000 </v>
   <v>       0.00000000       0.80000000       0.20000000 </v>
   <v>       0.00000000       0.80000000       0.40000000 </v>
   <v>       0.00000000       0.80000000       0.60000000 </v>
   <v>       0.00000000       0.80000000       0.80000000 </v>
   <v>       0.20000000       0.00000000       0.00000000 </v>
   <v>       0.20000000       0.00000000       0.20000000 </v>
   <v>       0.20000000       0.00000000       0.40000000 </v>
   <v>       0.20000000       0.00000000       0.60000000 </v>
   <v>       0.20000000       0.00000000       0.80000000 </v>
   <v>       0.20000000       0.20000000       0.00000000 </v>
   <v>       0.20000000       0.20000000       0.20000000 </v>
   <v>       0.20000000       0.20000000       0.40000000 </v>
   <v>       0.20000000       0.20000000       0.60000000 </v>
   <v>       0.20000000       0.20000000       0.80000000 </v>
   <v>       0.20000000       0.40000000       0.00000000 </v>
   <v>       0.20000000       0.40000000       0.20000000 </v>
   <v>       0.20000000       0.40000000       0.40000000 </v>
   <v>       0.20000000       0.40000000       0.60000000 </v>
   <v>       0.20000000       0.40000000       0.80000000 </v>
   <v>       0.20000000       0.60000000       0.00000000 </v>
   <v>       0.20000000       0.60000000       0.20000000 </v>
   <v>       0.20000000       0.60000000       0.40000000 </v>
   <v>       0.20000000       0.60000000       0.60000000 </v>
   <v>       0.20000000       0.60000000       0.80000000 </v>
   <v>       0.20000000       0.80000000       0.00000000 </v>
   <v>       0.20000000       0.80000000       0.20000000 </v>
   <v>       0.20000000       0.80000000       0.40000000 </v>
   <v>       0.20000000       0.80000000       0.60000000 </v>
   <v>       0.20000000       0.80000000       0.80000000 </v>
   <v>       0.40000000       0.00000000       0.00000000 </v>
   <v>       0.40000000       0.00000000       0.20000000 </v>
   <v>       0.40000000       0.00000000       0.40000000 </v>
   <v>       0.40000000       0.00000000       0.60000000 </v>
   <v>       0.40000000       0.00000000       0.80000000 </v>
   <v>       0.40000000       0.20000000       0.00000000 </v>
   <v>       0.40000000       0.20000000       0.20000000 </v>
   <v>       0.40000000       0.20000000       0.40000000 </v>
   <v>       0.40000000       0.20000000       0.60000000 </v>
   <v>       0.40000000       0.20000000       0.80000000 </v>
   <v>       0.40000000       0.40000000       0.00000000 </v>
   <v>       0.40000000       0.40000000       0.20000000 </v>
   <v>       0.40000000       0.40000000       0.40000000 </v>
   <v>       0.40000000       0.40000000       0.60000000 </v>
   <v>       0.40000000       0.40000000       0.80000000 </v>
   <v>       0.40000000       0.60000000       0.00000000 </v>
   <v>       0.40000000       0.60000000       0.20000000 </v>
   <v>       0.40000000       0.60000000       0.40000000 </v>
   <v>       0.40000000       0.60000000       0.60000000 </v>
   <v>       0.40000000       0.60000000       0.80000000 </v>
   <v>       0.40000000       0.80000000       0.00000000 </v>
   <v>       0.40000000       0.80000000       0.20000000 </v>
   <v>       0.40000000       0.80000000       0.40000000 </v>
   <v>       0.40000000       0.80000000       0.60000000 </v>
   <v>       0.40000000       0.80000000       0.80000000 </v>
   <v>       0.60000000       0.00000000       0.00000000 </v>
   <v>       0.60000000       0.00000000       0.20000000 </v>
   <v>       0.60000000       0.00000000       0.40000000 </v>
   <v>       0.60000000       0.00000000       0.60000000 </v>
   <v>       0.60000000       0.00000000       0.80000000 </v>
   <v>       0.60000000       0.20000000       0.00000000 </v>
   <v>       0.60000000       0.20000000       0.20000000 </v>
   <v>       0.60000000       0.20000000       0.40000000 </v>
   <v>       0.60000000       0.20000000       0.60000000 </v>
   <v>       0.60000000       0.20000000       0.80000000 </v>
   <v>       0.60000000       0.40000000       0.00000000 </v>
   <v>       0.60000000       0.40000000       0.20000000 </v>
   <v>       0.60000000       0.40000000       0.40000000 </v>
   <v>       0.60000000       0.40000000       0.60000000 </v>
   <v>       0.60000000       0.40000000       0.80000000 </v>
   <v>       0.60000000       0.60000000       0.00000000 </v>
   <v>       0.60000000       0.60000000       0.20000000 </v>
   <v>       0.60000000       0.60000000       0.40000000 </v>
   <v>       0.60000000       0.60000000       0.60000000 </v>
   <v>       0.60000000       0.60000000       0.80000000 </v>
   <v>       0.60000000       0.80000000       0.00000000 </v>
   <v>       0.60000000       0.80000000       0.20000000 </v>
   <v>       0.60000000       0.80000000       0.40000000 </v>
   <v>       0.60000000       0.80000000       0.60000000 </v>
   <v>       0.60000000       0.80000000       0.80000000 </v>
   <v>       0.80000000       0.00000000       0.00000000 </v>
   <v>       0.80000000       0.00000000       0.20000000 </v>
   <v>       0.80000000       0.00000000       0.40000000 </v>
   <v>       0.80000000       0.00000000       0.60000000 </v>
   <v>       0.80000000       0.00000000       0.80000000 </v>
   <v>       0.80000000       0.20000000       0.00000000 </v>
   <v>       0.80000000       0.20000000       0.20000000 </v>
   <v>       0.80000000       0.20000000       0.40000000 </v>
   <v>       0.80000000       0.20000000       0.60000000 </v>
   <v>       0.80000000       0.20000000       0.80000000 </v>
   <v>       0.80000000       0.40000000       0.00000000 </v>
   <v>       0.80000000       0.40000000       0.20000000 </v>
   <v>       0.80000000       0.40000000       0.40000000 </v>
   <v>       0.80000000       0.40000000       0.60000000 </v>
   <v>       0.80000000       0.40000000       0.80000000 </v>
   <v>       0.80000000       0.60000000       0.00000000 </v>
   <v>       0.80000000       0.60000000       0.20000000 </v>
   <v>       0.80000000       0.60000000       0.40000000 </v>
   <v>       0.80000000       0.60000000       0.60000000 </v>
   <v>       0.80000000       0.60000000       0.80000000 </v>
   <v>       0.80000000       0.80000000       0.00000000 </v>
   <v>       0.80000000       0.80000000       0.20000000 </v>
   <v>       0.80000000       0.80000000       0.40000000 </v>
   <v>       0.80000000       0.80000000       0.60000000 </v>
   <v>       0.80000000       0.80000000       0.80000000 </v>
   <v>       0.10000000       0.10000000       0.10000000 </v>
   <v>       0.10000000       0.10000000       0.30000000 </v>
   <v>       0.10000000       0.10000000       0.50000000 </v>
   <v>       0.10000000       0.10000000       0.70000000 </v>
   <v>       0.10000000       0.10000000       0.90000000 </v>
   <v>       0.10000000       0.30000000       0.10000000 </v>
   <v>       0.10000000       0.30000000       0.30000000 </v>
   <v>       0.10000000       0.30000000       0.50000000 </v>
   <v>       0.10000000       0.30000000       0.70000000 </v>
   <v>       0.10000000       0.30000000       0.90000000 </v>
   <v>       0.10000000       0.50000000       0.10000000 </v>
   <v>       0.10000000       0.50000000       0.30000000 </v>
   <v>       0.10000000       0.50000000       0.50000000 </v>
   <v>       0.10000000       0.50000000       0.70000000 </v>
   <v>       0.10000000       0.50000000       0.90000000 </v>
   <v>       0.10000000       0.70000000       0.10000000 </v>
   <v>       0.10000000       0.70000000       0.30000000 </v>
   <v>       0.10000000       0.70000000       0.50000000 </v>
   <v>       0.10000000       0.70000000       0.70000000 </v>
   <v>       0.10000000       0.70000000       0.90000000 </v>
   <v>       0.10000000       0.90000000       0.10000000 </v>
   <v>       0.10000000       0.90000000       0.30000000 </v>
   <v>       0.10000000       0.90000000       0.50000000 </v>
   <v>       0.10000000       0.90000000       0.70000000 </v>
   <v>       0.10000000       0.90000000       0.90000000 </v>
   <v>       0.30000000       0.10000000       0.10000000 </v>
   <v>       0.30000000       0.10000000       0.30000000 </v>
   <v>       0.30000000       0.10000000       0.50000000 </v>
   <v>       0.30000000       0.10000000       0.70000000 </v>
   <v>       0.30000000       0.10000000       0.90000000 </v>
   <v>       0.30000000       0.30000000       0.10000000 </v>
   <v>       0.30000000       0.30000000       0.30000000 </v>
   <v>       0.30000000       0.30000000       0.50000000 </v>
   <v>       0.30000000       0.30000000       0.70000000 </v>
   <v>       0.30000000       0.30000000       0.90000000 </v>
   <v>       0.30000000       0.50000000       0.10000000 </v>
   <v>       0.30000000       0.50000000       0.30000000 </v>
   <v>       0.30000000       0.50000000       0.50000000 </v>
   <v>       0.30000000       0.50000000       0.70000000 </v>
   <v>       0.30000000       0.50000000       0.90000000 </v>
   <v>       0.30000000       0.70000000       0.10000000 </v>
   <v>       0.30000000       0.70000000       0.30000000 </v>
   <v>       0.30000000       0.70000000       0.50000000 </v>
   <v>       0.30000000       0.70000000       0.70000000 </v>
   <v>       0.30000000       0.70000000       0.90000000 </v>
   <v>       0.30000000       0.90000000       0.10000000 </v>
   <v>       0.30000000       0.90000000       0.30000000 </v>
   <v>       0.30000000       0.90000000       0.50000000 </v>
   <v>       0.30000000       0.90000000       0.70000000 </v>
   <v>       0.30000000       0.90000000       0.90000000 </v>
   <v>       0.50000000       0.10000000       0.10000000 </v>
   <v>       0.50000000       0.10000000       0.30000000 </v>
   <v>       0.50000000       0.10000000       0.50000000 </v>
   <v>       0.50000000       0.10000000       0.70000000 </v>
   <v>       0.50000000       0.10000000       0.90000000 </v>
   <v>       0.50000000       0.30000000       0.10000000 </v>
   <v>       0.50000000       0.30000000       0.30000000 </v>
   <v>       0.50000000       0.30000000       0.50000000 </v>
   <v>       0.50000000       0.30000000       0.70000000 </v>
   <v>       0.50000000       0.30000000       0.90000000 </v>
   <v>       0.50000000       0.50000000       0.10000000 </v>
   <v>       0.50000000       0.50000000       0.30000000 </v>
   <v>       0.50000000       0.50000000       0.50000000 </v>
   <v>       0.50000000       0.50000000       0.70000000 </v>
   <v>       0.50000000       0.50000000       0.90000000 </v>
   <v>       0.50000000       0.70000000       0.10000000 </v>
   <v>       0.50000000       0.70000000       0.30000000 </v>
   <v>       0.50000000       0.70000000       0.50000000 </v>
   <v>       0.50000000       0.70000000       0.70000000 </v>
   <v>       0.50000000       0.70000000       0.90000000 </v>
   <v>       0.50000000       0.90000000       0.10000000 </v>
   <v>       0.50000000       0.90000000       0.30000000 </v>
   <v>       0.50000000       0.90000000       0.50000000 </v>
   <v>       0.50000000       0.90000000       0.70000000 </v>
   <v>       0.50000000       0.90000000       0.90000000 </v>
   <v>       0.70000000       0.10000000       0.10000000 </v>
   <v>       0.70000000       0.10000000       0.30000000 </v>
   <v>       0.70000000       0.10000000       0.50000000 </v>
   <v>       0.70000000       0.10000000       0.70000000 </v>
   <v>       0.70000000       0.10000000       0.90000000 </v>
   <v>       0.70000000       0.30000000       0.10000000 </v>
   <v>       0.70000000       0.30000000       0.30000000 </v>
   <v>       0.70000000       0.30000000       0.50000000 </v>
   <v>       0.70000000       0.30000000       0.70000000 </v>
   <v>       0.70000000       0.30000000       0.90000000 </v>
   <v>       0.70000000       0.50000000       0.10000000 </v>
   <v>       0.70000000       0.50000000       0.30000000 </v>
   <v>       0.70000000       0.50000000       0.50000000 </v>
   <v>       0.70000000       0.50000000       0.70000000 </v>
   <v>       0.70000000       0.50000000       0.90000000 </v>
   <v>       0.70000000       0.70000000       0.10000000 </v>
   <v>       0.70000000       0.70000000       0.30000000 </v>
   <v>       0.70000000       0.70000000       0.50000000 </v>
   <v>       0.70000000       0.70000000       0.70000000 </v>
   <v>       0.70000000       0.70000000       0.90000000 </v>
   <v>       0.70000000       0.90000000       0.10000000 </v>
   <v>       0.70000000       0.90000000       0.30000000 </v>
   <v>       0.70000000       0.90000000       0.50000000 </v>
   <v>       0.70000000       0.90000000       0.70000000 </v>
   <v>       0.70000000       0.90000000       0.90000000 </v>
   <v>       0.90000000       0.10000000       0.10000000 </v>
   <v>       0.90000000       0.10000000       0.30000000 </v>
   <v>       0.90000000       0.10000000       0.50000000 </v>
   <v>       0.90000000       0.10000000       0.70000000 </v>
   <v>       0.90000000       0.10000000       0.90000000 </v>
   <v>       0.90000000       0.30000000       0.10000000 </v>
   <v>       0.90000000       0.30000000       0.30000000 </v>
   <v>       0.90000000       0.30000000       0.50000000 </v>
   <v>       0.90000000       0.30000000       0.70000000 </v>
   <v>       0.90000000       0.30000000       0.90000000 </v>
   <v>       0.90000000       0.50000000       0.10000000 </v>
   <v>       0.90000000       0.50000000       0.30000000 </v>
   <v>       0.90000000       0.50000000       0.50000000 </v>
   <v>       0.90000000       0.50000000       0.70000000 </v>
   <v>       0.90000000       0.50000000       0.90000000 </v>
   <v>       0.90000000       0.70000000       0.10000000 </v>
   <v>       0.90000000       0.70000000       0.30000000 </v>
   <v>       0.90000000       0.70000000       0.50000000 </v>
   <v>       0.90000000       0.70000000       0.70000000 </v>
   <v>       0.90000000       0.70000000       0.90000000 </v>
   <v>       0.90000000       0.90000000       0.10000000 </v>
   <v>       0.90000000       0.90000000       0.30000000 </v>
   <v>       0.90000000       0.90000000       0.50000000 </v>
   <v>       0.90000000       0.90000000       0.70000000 </v>
   <v>       0.90000000       0.90000000       0.90000000 </v>
  </varray>
 </structure>
 <calculation>
  <scstep>
   <time name="dav">   26.09   26.10</time>
   <time name="total">   27.26   27.27</time>
   <energy>
    <i name="alphaZ">  25516.34838959 </i>
    <i name="ewald">-205799.95837987 </i>
    <i name="hartreedc"> -20239.81946139 </i>
    <i name="XCdc">   5334.71966101 </i>
    <i name="pawpsdc"> 162608.58078429 </i>
    <i name="pawaedc">-172205.50356846 </i>
    <i name="eentropy">     -0.02766122 </i>
    <i name="bandstr">  44863.95391403 </i>
    <i name="atom"> 188700.74019153 </i>
    <i name="e_fr_energy">  28779.03386950 </i>
    <i name="e_wo_entrp">  28779.06153073 </i>
    <i name="e_0_energy">  28779.04770012 </i>
   </energy>
  </scstep>
  <scstep>
   <time name="dav">   25.79   25.79</time>
   <time name="total">   25.80   25.80</time>
   <energy>
    <i name="e_fr_energy">   4055.91360256 </i>
    <i name="e_wo_entrp">   4055.98368944 </i>
    <i name="e_0_energy">   4055.94864600 </i>
   </energy>
  </scstep>
  <scstep>
   <time name="dav">   27.08   27.08</time>
   <time name="total">   27.09   27.09</time>
   <energy>
    <i name="e_fr_energy">   -144.74213017 </i>
    <i name="e_wo_entrp">   -144.43615853 </i>
    <i name="e_0_energy">   -144.58914435 </i>
   </energy>
  </scstep>
  <scstep>
   <time name="dav">   35.50   35.51</time>
   <time name="total">   35.51   35.52</time>
   <energy>
    <i name="e_fr_energy">   -603.31055056 </i>
    <i name="e_wo_entrp">   -602.98406786 </i>
    <i name="e_0_energy">   -603.14730921 </i>
   </energy>
  </scstep>
  <scstep>
   <time name="dav">   34.92   34.93</time>
   <time name="total">   36.14   36.15</time>
   <energy>
    <i name="e_fr_energy">   -617.74948539 </i>
    <i name="e_wo_entrp">   -617.42418158 </i>
    <i name="e_0_energy">   -617.58683349 </i>
   </energy>
  </scstep>
  <scstep>
   <time name="dav">   36.85   36.85</time>
   <time name="total">   39.21   39.22</time>
   <energy>
    <i name="e_fr_energy">   -442.63878832 </i>
    <i name="e_wo_entrp">   -442.48420819 </i>
    <i name="e_0_energy">   -442.56149825 </i>
   </energy>
  </scstep>
  <scstep>
   <time name="dav">   29.29   29.29</time>
   <time name="total">   31.66   31.66</time>
   <energy>
    <i name="e_fr_energy">  -1268.22208450 </i>
    <i name="e_wo_entrp">  -1268.06283554 </i>
    <i name="e_0_energy">  -1268.14246002 </i>
   </energy>
  </scstep>
  <scstep>
   <time name="dav">   30.65   30.66</time>
   <time name="total">   33.02   33.03</time>
   <energy>
    <i name="e_fr_energy">  -1072.62131907 </i>
    <i name="e_wo_entrp">  -1072.41071828 </i>
    <i name="e_0_energy">  -1072.51601868 </i>
   </energy>
  </scstep>
  <scstep>
   <time name="dav">   31.44   31.45</time>
   <time name="total">   33.82   33.82</time>
   <energy>
    <i name="e_fr_energy">   -984.11364134 </i>
    <i name="e_wo_entrp">   -983.95037084 </i>
    <i name="e_0_energy">   -984.03200609 </i>
   </energy>
  </scstep>
  <scstep>
   <time name="dav">   28.05   28.05</time>
   <time name="total">   30.42   30.43</time>
   <energy>
    <i name="e_fr_energy">   -694.54138485 </i>
    <i name="e_wo_entrp">   -694.31777891 </i>
    <i name="e_0_energy">   -694.42958188 </i>
   </energy>
  </scstep>
  <scstep>
   <time name="dav">   29.59   29.59</time>
   <time name="total">   31.97   31.98</time>
   <energy>
    <i name="e_fr_energy">   -460.71950781 </i>
    <i name="e_wo_entrp">   -460.49222158 </i>
    <i name="e_0_energy">   -460.60586469 </i>
   </energy>
  </scstep>
  <scstep>
   <time name="dav">   29.04   29.04</time>
   <time name="total">   31.43   31.43</time>
   <energy>
    <i name="e_fr_energy">   -460.44293751 </i>
    <i name="e_wo_entrp">   -460.22317566 </i>
    <i name="e_0_energy">   -460.33305659 </i>
   </energy>
  </scstep>
  <scstep>
   <time name="dav">   27.28   27.29</time>
   <time name="total">   29.67   29.68</time>
   <energy>
    <i name="e_fr_energy">   -468.29009597 </i>
    <i name="e_wo_entrp">   -468.08849439 </i>
    <i name="e_0_energy">   -468.18929518 </i>
   </energy>
  </scstep>
  <scstep>
   <time name="dav">   27.40   27.40</time>
   <time name="total">   29.79   29.79</time>
   <energy>
    <i name="e_fr_energy">   -417.96707157 </i>
    <i name="e_wo_entrp">   -417.76968180 </i>
    <i name="e_0_energy">   -417.86837669 </i>
   </energy>
  </scstep>
  <scstep>
   <time name="dav">   30.57   30.57</time>
   <time name="total">   32.97   32.98</time>
   <energy>
    <i name="e_fr_energy">   -398.83356922 </i>
    <i name="e_wo_entrp">   -398.64647611 </i>
    <i name="e_0_energy">   -398.74002266 </i>
   </energy>
  </scstep>
  <scstep>
   <time name="dav">   29.32   29.33</time>
   <time name="total">   31.74   31.76</time>
   <energy>
    <i name="e_fr_energy">   -390.44180901 </i>
    <i name="e_wo_entrp">   -390.22462107 </i>
    <i name="e_0_energy">   -390.33321504 </i>
   </energy>
  </scstep>
  <scstep>
   <time name="dav">   28.02   28.03</time>
   <time name="total">   30.44   30.44</time>
   <energy>
    <i name="e_fr_energy">   -389.19997064 </i>
    <i name="e_wo_entrp">   -388.95622743 </i>
    <i name="e_0_energy">   -389.07809904 </i>
   </energy>
  </scstep>
  <scstep>
   <time name="dav">   28.52   28.52</time>
   <time name="total">   30.94   30.94</time>
   <energy>
    <i name="e_fr_energy">   -390.61866938 </i>
    <i name="e_wo_entrp">   -390.37753417 </i>
    <i name="e_0_energy">   -390.49810177 </i>
   </energy>
  </scstep>
  <scstep>
   <time name="dav">   29.29   29.29</time>
   <time name="total">   31.71   31.72</time>
   <energy>
    <i name="e_fr_energy">   -390.41272492 </i>
    <i name="e_wo_entrp">   -390.21206959 </i>
    <i name="e_0_energy">   -390.31239726 </i>
   </energy>
  </scstep>
  <scstep>
   <time name="dav">   28.32   28.33</time>
   <time name="total">   30.76   30.76</time>
   <energy>
    <i name="e_fr_energy">   -386.57954446 </i>
    <i name="e_wo_entrp">   -386.33831208 </i>
    <i name="e_0_energy">   -386.45892827 </i>
   </energy>
  </scstep>
  <scstep>
   <time name="dav">   28.21   28.21</time>
   <time name="total">   30.66   30.66</time>
   <energy>
[...]
       <r>    19.9986     0.0000  1125.0000 </r>
       <r>    20.1477     0.0000  1125.0000 </r>
       <r>    20.2968     0.0000  1125.0000 </r>
       <r>    20.4458     0.0000  1125.0000 </r>
       <r>    20.5949     0.0000  1125.0000 </r>
       <r>    20.7440     0.0000  1125.0000 </r>
       <r>    20.8930     0.0000  1125.0000 </r>
       <r>    21.0421     0.0000  1125.0000 </r>
       <r>    21.1912     0.0000  1125.0000 </r>
       <r>    21.3402     0.0000  1125.0000 </r>
       <r>    21.4893     0.0000  1125.0000 </r>
       <r>    21.6384     0.0000  1125.0000 </r>
       <r>    21.7875     0.0000  1125.0000 </r>
       <r>    21.9365     0.0000  1125.0000 </r>
       <r>    22.0856     0.0000  1125.0000 </r>
       <r>    22.2347     0.0000  1125.0000 </r>
       <r>    22.3837     0.0000  1125.0000 </r>
       <r>    22.5328     0.0000  1125.0000 </r>
       <r>    22.6819     0.0000  1125.0000 </r>
       <r>    22.8310     0.0000  1125.0000 </r>
       <r>    22.9800     0.0000  1125.0000 </r>
       <r>    23.1291     0.0000  1125.0000 </r>
       <r>    23.2782     0.0000  1125.0000 </r>
       <r>    23.4272     0.0000  1125.0000 </r>
       <r>    23.5763     0.0000  1125.0000 </r>
       <r>    23.7254     0.0000  1125.0000 </r>
       <r>    23.8744     0.0000  1125.0000 </r>
       <r>    24.0235     0.0000  1125.0000 </r>
       <r>    24.1726     0.0000  1125.0000 </r>
       <r>    24.3217     0.0000  1125.0000 </r>
       <r>    24.4707     0.0000  1125.0000 </r>
       <r>    24.6198     0.0000  1125.0000 </r>
       <r>    24.7689     0.2639  1125.0393 </r>
       <r>    24.9179     0.5745  1125.1250 </r>
       <r>    25.0670     0.0001  1125.1250 </r>
       <r>    25.2161     0.0324  1125.1298 </r>
       <r>    25.3651     7.0251  1126.1771 </r>
       <r>    25.5142     0.4892  1126.2500 </r>
       <r>    25.6633     1.3792  1126.4556 </r>
       <r>    25.8124     5.4680  1127.2707 </r>
       <r>    25.9614     8.2415  1128.4993 </r>
       <r>    26.1105     0.0048  1128.5000 </r>
       <r>    26.2596     0.0355  1128.5053 </r>
       <r>    26.4086    15.1823  1130.7685 </r>
       <r>    26.5577    21.6637  1133.9979 </r>
       <r>    26.7068     0.1356  1134.0182 </r>
       <r>    26.8559     7.9944  1135.2099 </r>
       <r>    27.0049    40.5136  1141.2493 </r>
       <r>    27.1540    17.7060  1143.8887 </r>
       <r>    27.3031    25.7330  1147.7248 </r>
       <r>    27.4521    60.3800  1156.7256 </r>
       <r>    27.6012    25.0721  1160.4632 </r>
       <r>    27.7503    41.5523  1166.6574 </r>
       <r>    27.8993    30.1952  1171.1586 </r>
       <r>    28.0484    38.7058  1176.9285 </r>
       <r>    28.1975    35.6612  1182.2445 </r>
       <r>    28.3466    25.9548  1186.1136 </r>
       <r>    28.4956    70.4444  1196.6148 </r>
       <r>    28.6447    29.3996  1200.9974 </r>
       <r>    28.7938     0.0175  1201.0000 </r>
       <r>    28.9428     0.0000  1201.0000 </r>
       <r>    29.0919     0.0000  1201.0000 </r>
       <r>    29.2410     0.0000  1201.0000 </r>
       <r>    29.3901     0.0000  1201.0000 </r>
       <r>    29.5391     0.0000  1201.0000 </r>
       <r>    29.6882     0.0000  1201.0000 </r>
       <r>    29.8373     0.0000  1201.0000 </r>
       <r>    29.9863     0.0000  1201.0000 </r>
       <r>    30.1354     0.0000  1201.0000 </r>
       <r>    30.2845     0.0000  1201.0000 </r>
       <r>    30.4335     0.0000  1201.0000 </r>
       <r>    30.5826     0.0000  1201.0000 </r>
      </set>
     </set>
    </array>
   </total>
  </dos>
 </calculation>
 <structure name="finalpos" >
  <crystal>
   <varray name="basis" >
    <v>      10.54150000       0.00000000       0.00000000 </v>
    <v>       0.00000000      10.54150000       0.00000000 </v>
    <v>       0.00000000       0.00000000      10.54150000 </v>
   </varray>
   <i name="volume">   1171.40544735 </i>
   <varray name="rec_basis" >
    <v>       0.09486316       0.00000000       0.00000000 </v>
    <v>       0.00000000       0.09486316       0.00000000 </v>
    <v>       0.00000000       0.00000000       0.09486316 </v>
   </varray>
  </crystal>
  <varray name="positions" >
   <v>       0.00000000       0.00000000       0.00000000 </v>
   <v>       0.00000000       0.00000000       0.20000000 </v>
   <v>       0.00000000       0.00000000       0.40000000 </v>
   <v>       0.00000000       0.00000000       0.60000000 </v>
   <v>       0.00000000       0.00000000       0.80000000 </v>
   <v>       0.00000000       0.20000000       0.00000000 </v>
   <v>       0.00000000       0.20000000       0.20000000 </v>
   <v>       0.00000000       0.20000000       0.40000000 </v>
   <v>       0.00000000       0.20000000       0.60000000 </v>
   <v>       0.00000000       0.20000000       0.80000000 </v>
   <v>       0.00000000       0.40000000       0.00000000 </v>
   <v>       0.00000000       0.40000000       0.20000000 </v>
   <v>       0.00000000       0.40000000       0.40000000 </v>
   <v>       0.00000000       0.40000000       0.60000000 </v>
   <v>       0.00000000       0.40000000       0.80000000 </v>
   <v>       0.00000000       0.60000000       0.00000000 </v>
   <v>       0.00000000       0.60000000       0.20000000 </v>
   <v>       0.00000000       0.60000000       0.40000000 </v>
   <v>       0.00000000       0.60000000       0.60000000 </v>
   <v>       0.00000000       0.60000000       0.80000000 </v>
   <v>       0.00000000       0.80000000       0.00000000 </v>
   <v>       0.00000000       0.80000000       0.20000000 </v>
   <v>       0.00000000       0.80000000       0.40000000 </v>
   <v>       0.00000000       0.80000000       0.60000000 </v>
   <v>       0.00000000       0.80000000       0.80000000 </v>
   <v>       0.20000000       0.00000000       0.00000000 </v>
   <v>       0.20000000       0.00000000       0.20000000 </v>
   <v>       0.20000000       0.00000000       0.40000000 </v>
   <v>       0.20000000       0.00000000       0.60000000 </v>
   <v>       0.20000000       0.00000000       0.80000000 </v>
   <v>       0.20000000       0.20000000       0.00000000 </v>
   <v>       0.20000000       0.20000000       0.20000000 </v>
   <v>       0.20000000       0.20000000       0.40000000 </v>
   <v>       0.20000000       0.20000000       0.60000000 </v>
   <v>       0.20000000       0.20000000       0.80000000 </v>
   <v>       0.20000000       0.40000000       0.00000000 </v>
   <v>       0.20000000       0.40000000       0.20000000 </v>
   <v>       0.20000000       0.40000000       0.40000000 </v>
   <v>       0.20000000       0.40000000       0.60000000 </v>
   <v>       0.20000000       0.40000000       0.80000000 </v>
   <v>       0.20000000       0.60000000       0.00000000 </v>
   <v>       0.20000000       0.60000000       0.20000000 </v>
   <v>       0.20000000       0.60000000       0.40000000 </v>
   <v>       0.20000000       0.60000000       0.60000000 </v>
   <v>       0.20000000       0.60000000       0.80000000 </v>
   <v>       0.20000000       0.80000000       0.00000000 </v>
   <v>       0.20000000       0.80000000       0.20000000 </v>
   <v>       0.20000000       0.80000000       0.40000000 </v>
   <v>       0.20000000       0.80000000       0.60000000 </v>
   <v>       0.20000000       0.80000000       0.80000000 </v>
   <v>       0.40000000       0.00000000       0.00000000 </v>
   <v>       0.40000000       0.00000000       0.20000000 </v>
   <v>       0.40000000       0.00000000       0.40000000 </v>
   <v>       0.40000000       0.00000000       0.60000000 </v>
   <v>       0.40000000       0.00000000       0.80000000 </v>
   <v>       0.40000000       0.20000000       0.00000000 </v>
   <v>       0.40000000       0.20000000       0.20000000 </v>
   <v>       0.40000000       0.20000000       0.40000000 </v>
   <v>       0.40000000       0.20000000       0.60000000 </v>
   <v>       0.40000000       0.20000000       0.80000000 </v>
   <v>       0.40000000       0.40000000       0.00000000 </v>
   <v>       0.40000000       0.40000000       0.20000000 </v>
   <v>       0.40000000       0.40000000       0.40000000 </v>
   <v>       0.40000000       0.40000000       0.60000000 </v>
   <v>       0.40000000       0.40000000       0.80000000 </v>
   <v>       0.40000000       0.60000000       0.00000000 </v>
   <v>       0.40000000       0.60000000       0.20000000 </v>
   <v>       0.40000000       0.60000000       0.40000000 </v>
   <v>       0.40000000       0.60000000       0.60000000 </v>
   <v>       0.40000000       0.60000000       0.80000000 </v>
   <v>       0.40000000       0.80000000       0.00000000 </v>
   <v>       0.40000000       0.80000000       0.20000000 </v>
   <v>       0.40000000       0.80000000       0.40000000 </v>
   <v>       0.40000000       0.80000000       0.60000000 </v>
   <v>       0.40000000       0.80000000       0.80000000 </v>
   <v>       0.60000000       0.00000000       0.00000000 </v>
   <v>       0.60000000       0.00000000       0.20000000 </v>
   <v>       0.60000000       0.00000000       0.40000000 </v>
   <v>       0.60000000       0.00000000       0.60000000 </v>
   <v>       0.60000000       0.00000000       0.80000000 </v>
   <v>       0.60000000       0.20000000       0.00000000 </v>
   <v>       0.60000000       0.20000000       0.20000000 </v>
   <v>       0.60000000       0.20000000       0.40000000 </v>
   <v>       0.60000000       0.20000000       0.60000000 </v>
   <v>       0.60000000       0.20000000       0.80000000 </v>
   <v>       0.60000000       0.40000000       0.00000000 </v>
   <v>       0.60000000       0.40000000       0.20000000 </v>
   <v>       0.60000000       0.40000000       0.40000000 </v>
   <v>       0.60000000       0.40000000       0.60000000 </v>
   <v>       0.60000000       0.40000000       0.80000000 </v>
   <v>       0.60000000       0.60000000       0.00000000 </v>
   <v>       0.60000000       0.60000000       0.20000000 </v>
   <v>       0.60000000       0.60000000       0.40000000 </v>
   <v>       0.60000000       0.60000000       0.60000000 </v>
   <v>       0.60000000       0.60000000       0.80000000 </v>
   <v>       0.60000000       0.80000000       0.00000000 </v>
   <v>       0.60000000       0.80000000       0.20000000 </v>
   <v>       0.60000000       0.80000000       0.40000000 </v>
   <v>       0.60000000       0.80000000       0.60000000 </v>
   <v>       0.60000000       0.80000000       0.80000000 </v>
   <v>       0.80000000       0.00000000       0.00000000 </v>
   <v>       0.80000000       0.00000000       0.20000000 </v>
   <v>       0.80000000       0.00000000       0.40000000 </v>
   <v>       0.80000000       0.00000000       0.60000000 </v>
   <v>       0.80000000       0.00000000       0.80000000 </v>
   <v>       0.80000000       0.20000000       0.00000000 </v>
   <v>       0.80000000       0.20000000       0.20000000 </v>
   <v>       0.80000000       0.20000000       0.40000000 </v>
   <v>       0.80000000       0.20000000       0.60000000 </v>
   <v>       0.80000000       0.20000000       0.80000000 </v>
   <v>       0.80000000       0.40000000       0.00000000 </v>
   <v>       0.80000000       0.40000000       0.20000000 </v>
   <v>       0.80000000       0.40000000       0.40000000 </v>
   <v>       0.80000000       0.40000000       0.60000000 </v>
   <v>       0.80000000       0.40000000       0.80000000 </v>
   <v>       0.80000000       0.60000000       0.00000000 </v>
   <v>       0.80000000       0.60000000       0.20000000 </v>
   <v>       0.80000000       0.60000000       0.40000000 </v>
   <v>       0.80000000       0.60000000       0.60000000 </v>
   <v>       0.80000000       0.60000000       0.80000000 </v>
   <v>       0.80000000       0.80000000       0.00000000 </v>
   <v>       0.80000000       0.80000000       0.20000000 </v>
   <v>       0.80000000       0.80000000       0.40000000 </v>
   <v>       0.80000000       0.80000000       0.60000000 </v>
   <v>       0.80000000       0.80000000       0.80000000 </v>
   <v>       0.10000000       0.10000000       0.10000000 </v>
   <v>       0.10000000       0.10000000       0.30000000 </v>
   <v>       0.10000000       0.10000000       0.50000000 </v>
   <v>       0.10000000       0.10000000       0.70000000 </v>
   <v>       0.10000000       0.10000000       0.90000000 </v>
   <v>       0.10000000       0.30000000       0.10000000 </v>
   <v>       0.10000000       0.30000000       0.30000000 </v>
   <v>       0.10000000       0.30000000       0.50000000 </v>
   <v>       0.10000000       0.30000000       0.70000000 </v>
   <v>       0.10000000       0.30000000       0.90000000 </v>
   <v>       0.10000000       0.50000000       0.10000000 </v>
   <v>       0.10000000       0.50000000       0.30000000 </v>
   <v>       0.10000000       0.50000000       0.50000000 </v>
   <v>       0.10000000       0.50000000       0.70000000 </v>
   <v>       0.10000000       0.50000000       0.90000000 </v>
   <v>       0.10000000       0.70000000       0.10000000 </v>
   <v>       0.10000000       0.70000000       0.30000000 </v>
   <v>       0.10000000       0.70000000       0.50000000 </v>
   <v>       0.10000000       0.70000000       0.70000000 </v>
   <v>       0.10000000       0.70000000       0.90000000 </v>
   <v>       0.10000000       0.90000000       0.10000000 </v>
   <v>       0.10000000       0.90000000       0.30000000 </v>
   <v>       0.10000000       0.90000000       0.50000000 </v>
   <v>       0.10000000       0.90000000       0.70000000 </v>
   <v>       0.10000000       0.90000000       0.90000000 </v>
   <v>       0.30000000       0.10000000       0.10000000 </v>
   <v>       0.30000000       0.10000000       0.30000000 </v>
   <v>       0.30000000       0.10000000       0.50000000 </v>
   <v>       0.30000000       0.10000000       0.70000000 </v>
   <v>       0.30000000       0.10000000       0.90000000 </v>
   <v>       0.30000000       0.30000000       0.10000000 </v>
   <v>       0.30000000       0.30000000       0.30000000 </v>
   <v>       0.30000000       0.30000000       0.50000000 </v>
   <v>       0.30000000       0.30000000       0.70000000 </v>
   <v>       0.30000000       0.30000000       0.90000000 </v>
   <v>       0.30000000       0.50000000       0.10000000 </v>
   <v>       0.30000000       0.50000000       0.30000000 </v>
   <v>       0.30000000       0.50000000       0.50000000 </v>
   <v>       0.30000000       0.50000000       0.70000000 </v>
   <v>       0.30000000       0.50000000       0.90000000 </v>
   <v>       0.30000000       0.70000000       0.10000000 </v>
   <v>       0.30000000       0.70000000       0.30000000 </v>
   <v>       0.30000000       0.70000000       0.50000000 </v>
   <v>       0.30000000       0.70000000       0.70000000 </v>
   <v>       0.30000000       0.70000000       0.90000000 </v>
   <v>       0.30000000       0.90000000       0.10000000 </v>
   <v>       0.30000000       0.90000000       0.30000000 </v>
   <v>       0.30000000       0.90000000       0.50000000 </v>
   <v>       0.30000000       0.90000000       0.70000000 </v>
   <v>       0.30000000       0.90000000       0.90000000 </v>
   <v>       0.50000000       0.10000000       0.10000000 </v>
   <v>       0.50000000       0.10000000       0.30000000 </v>
   <v>       0.50000000       0.10000000       0.50000000 </v>
   <v>       0.50000000       0.10000000       0.70000000 </v>
   <v>       0.50000000       0.10000000       0.90000000 </v>
   <v>       0.50000000       0.30000000       0.10000000 </v>
   <v>       0.50000000       0.30000000       0.30000000 </v>
   <v>       0.50000000       0.30000000       0.50000000 </v>
   <v>       0.50000000       0.30000000       0.70000000 </v>
   <v>       0.50000000       0.30000000       0.90000000 </v>
   <v>       0.50000000       0.50000000       0.10000000 </v>
   <v>       0.50000000       0.50000000       0.30000000 </v>
   <v>       0.50000000       0.50000000       0.50000000 </v>
   <v>       0.50000000       0.50000000       0.70000000 </v>
   <v>       0.50000000       0.50000000       0.90000000 </v>
   <v>       0.50000000       0.70000000       0.10000000 </v>
   <v>       0.50000000       0.70000000       0.30000000 </v>
   <v>       0.50000000       0.70000000       0.50000000 </v>
   <v>       0.50000000       0.70000000       0.70000000 </v>
   <v>       0.50000000       0.70000000       0.90000000 </v>
   <v>       0.50000000       0.90000000       0.10000000 </v>
   <v>       0.50000000       0.90000000       0.30000000 </v>
   <v>       0.50000000       0.90000000       0.50000000 </v>
   <v>       0.50000000       0.90000000       0.70000000 </v>
   <v>       0.50000000       0.90000000       0.90000000 </v>
   <v>       0.70000000       0.10000000       0.10000000 </v>
   <v>       0.70000000       0.10000000       0.30000000 </v>
   <v>       0.70000000       0.10000000       0.50000000 </v>
   <v>       0.70000000       0.10000000       0.70000000 </v>
   <v>       0.70000000       0.10000000       0.90000000 </v>
   <v>       0.70000000       0.30000000       0.10000000 </v>
   <v>       0.70000000       0.30000000       0.30000000 </v>
   <v>       0.70000000       0.30000000       0.50000000 </v>
   <v>       0.70000000       0.30000000       0.70000000 </v>
   <v>       0.70000000       0.30000000       0.90000000 </v>
   <v>       0.70000000       0.50000000       0.10000000 </v>
   <v>       0.70000000       0.50000000       0.30000000 </v>
   <v>       0.70000000       0.50000000       0.50000000 </v>
   <v>       0.70000000       0.50000000       0.70000000 </v>
   <v>       0.70000000       0.50000000       0.90000000 </v>
   <v>       0.70000000       0.70000000       0.10000000 </v>
   <v>       0.70000000       0.70000000       0.30000000 </v>
   <v>       0.70000000       0.70000000       0.50000000 </v>
   <v>       0.70000000       0.70000000       0.70000000 </v>
   <v>       0.70000000       0.70000000       0.90000000 </v>
   <v>       0.70000000       0.90000000       0.10000000 </v>
   <v>       0.70000000       0.90000000       0.30000000 </v>
   <v>       0.70000000       0.90000000       0.50000000 </v>
   <v>       0.70000000       0.90000000       0.70000000 </v>
   <v>       0.70000000       0.90000000       0.90000000 </v>
   <v>       0.90000000       0.10000000       0.10000000 </v>
   <v>       0.90000000       0.10000000       0.30000000 </v>
   <v>       0.90000000       0.10000000       0.50000000 </v>
   <v>       0.90000000       0.10000000       0.70000000 </v>
   <v>       0.90000000       0.10000000       0.90000000 </v>
   <v>       0.90000000       0.30000000       0.10000000 </v>
   <v>       0.90000000       0.30000000       0.30000000 </v>
   <v>       0.90000000       0.30000000       0.50000000 </v>
   <v>       0.90000000       0.30000000       0.70000000 </v>
   <v>       0.90000000       0.30000000       0.90000000 </v>
   <v>       0.90000000       0.50000000       0.10000000 </v>
   <v>       0.90000000       0.50000000       0.30000000 </v>
   <v>       0.90000000       0.50000000       0.50000000 </v>
   <v>       0.90000000       0.50000000       0.70000000 </v>
   <v>       0.90000000       0.50000000       0.90000000 </v>
   <v>       0.90000000       0.70000000       0.10000000 </v>
   <v>       0.90000000       0.70000000       0.30000000 </v>
   <v>       0.90000000       0.70000000       0.50000000 </v>
   <v>       0.90000000       0.70000000       0.70000000 </v>
   <v>       0.90000000       0.70000000       0.90000000 </v>
   <v>       0.90000000       0.90000000       0.10000000 </v>
   <v>       0.90000000       0.90000000       0.30000000 </v>
   <v>       0.90000000       0.90000000       0.50000000 </v>
   <v>       0.90000000       0.90000000       0.70000000 </v>
   <v>       0.90000000       0.90000000       0.90000000 </v>
  </varray>
 </structure>
</modeling>
