LAMMPS (24 Mar 2022)
OMP_NUM_THREADS environment is not set. Defaulting to 1 thread. (src/comm.cpp:98)
  using 1 OpenMP thread(s) per MPI task
Reading data file ...
  triclinic box = (0 0 0) to (15.146222 13.117013 37.6) with tilt (7.5731109 0 0)
  1 by 1 by 1 MPI processor grid
  reading atoms ...
  252 atoms
  read_data CPU = 0.001 seconds
WARNING: Using 'neigh_modify every 1 delay 0 check yes' setting during minimization (src/min.cpp:187)
Neighbor list info ...
  update every 1 steps, delay 0 steps, check yes
  max neighbors/atom: 2000, page size: 100000
  master list distance cutoff = 8.28721
  ghost atom cutoff = 8.28721
  binsize = 4.143605, bins = 6 4 10
  1 neighbor lists, perpetual/occasional/extra = 1 0 0
  (1) pair eam/alloy, perpetual
      attributes: half, newton on
      pair build: half/bin/newton/tri
      stencil: half/bin/3d/tri
      bin: standard
Setting up cg style minimization ...
  Unit style    : metal
  Current step  : 0
Per MPI rank memory allocation (min/avg/max) = 4.502 | 4.502 | 4.502 Mbytes
   Step          Temp          E_pair         E_mol          TotEng         Press     
         0   0             -1066.0609      0             -1066.0609     -28033.277    
Loop time of 3.106e-06 on 1 procs for 0 steps with 252 atoms

96.6% CPU use with 1 MPI tasks x 1 OpenMP threads

Minimization stats:
  Stopping criterion = max iterations
  Energy initial, next-to-last, final = 
     -1066.06089536946                  0  -1066.06089536946
  Force two-norm initial, final = 9.6857978 9.6857978
  Force max component initial, final = 1.2042724 1.2042724
  Final line search alpha, max atom move = 0 0
  Iterations, force evaluations = 0 0

MPI task timing breakdown:
Section |  min time  |  avg time  |  max time  |%varavg| %total
---------------------------------------------------------------
Pair    | 0          | 0          | 0          |   0.0 |  0.00
Neigh   | 0          | 0          | 0          |   0.0 |  0.00
Comm    | 0          | 0          | 0          |   0.0 |  0.00
Output  | 0          | 0          | 0          |   0.0 |  0.00
Modify  | 0          | 0          | 0          |   0.0 |  0.00
Other   |            | 3.106e-06  |            |       |100.00

Nlocal:            252 ave         252 max         252 min
Histogram: 1 0 0 0 0 0 0 0 0 0
Nghost:           1627 ave        1627 max        1627 min
Histogram: 1 0 0 0 0 0 0 0 0 0
Neighs:          19944 ave       19944 max       19944 min
Histogram: 1 0 0 0 0 0 0 0 0 0

Total # of neighbors = 19944
Ave neighs/atom = 79.142857
Neighbor list builds = 0
Dangerous builds = 0
Setting up Verlet run ...
  Unit style    : metal
  Current step  : 0
  Time step     : 0.01
Per MPI rank memory allocation (min/avg/max) = 4.387 | 4.387 | 4.387 Mbytes
   Step          Temp          E_pair         E_mol          TotEng         Press     
         0   300           -1066.0609      0             -1056.3276     -26641.558    
       100   275.89904     -1065.1678      0             -1056.2164     -23595.9      
       200   378.30402     -1068.5354      0             -1056.2616     -18900.393    
       300   401.31132     -1069.3178      0             -1056.2976     -9981.7183    
       400   280.68025     -1065.3583      0             -1056.2518      184.31062    
       500   246.60401     -1064.223       0             -1056.2221      4423.3174    
       600   355.17027     -1067.8085      0             -1056.2853     -2700.2756    
       700   372.50059     -1068.3505      0             -1056.265      -14767.222    
       800   265.30148     -1064.8119      0             -1056.2044     -23819.654    
       900   244.55348     -1064.1682      0             -1056.2338     -30628.637    
      1000   282.2394      -1065.4158      0             -1056.2588     -32449.255    
      1100   333.66863     -1067.0771      0             -1056.2515     -25683.362    
      1200   353.21143     -1067.7202      0             -1056.2605     -13111.511    
      1300   275.77132     -1065.1915      0             -1056.2443     -1476.3114    
      1400   294.74912     -1065.8292      0             -1056.2663     -127.87996    
      1500   332.41131     -1067.0507      0             -1056.2659     -7058.247     
      1600   305.70785     -1066.1401      0             -1056.2216     -18616.863    
      1700   289.1161      -1065.625       0             -1056.2449     -28585.323    
      1800   278.3975      -1065.2855      0             -1056.2531     -30967.076    
      1900   288.94482     -1065.6076      0             -1056.233      -26069.136    
      2000   322.43539     -1066.7102      0             -1056.249      -15270.161    
      2100   301.12669     -1066.0098      0             -1056.24       -4345.1598    
      2200   306.70513     -1066.2589      0             -1056.3081     -145.66578    
      2300   319.80316     -1066.6673      0             -1056.2915     -5214.2312    
      2400   341.82824     -1067.3634      0             -1056.273      -16462.826    
      2500   297.4422      -1065.8829      0             -1056.2326     -25773.606    
      2600   274.23155     -1065.151       0             -1056.2538     -28005.854    
      2700   306.74278     -1066.2204      0             -1056.2683     -24381.228    
      2800   335.34142     -1067.1353      0             -1056.2554     -15074.887    
      2900   333.68571     -1067.1343      0             -1056.3081     -5466.832     
      3000   290.61849     -1065.7027      0             -1056.2737     -680.04607    
      3100   315.96148     -1066.5238      0             -1056.2727     -6275.2265    
      3200   348.15504     -1067.5748      0             -1056.2791     -16563.282    
      3300   307.69053     -1066.2521      0             -1056.2693     -25395.406    
      3400   287.22543     -1065.5712      0             -1056.2523     -27842.943    
      3500   297.89239     -1065.9059      0             -1056.241      -22346.545    
      3600   336.48808     -1067.1995      0             -1056.2824     -13260.552    
      3700   295.9945      -1065.856       0             -1056.2527     -3858.5008    
      3800   290.05643     -1065.6761      0             -1056.2654     -2349.6494    
      3900   323.84326     -1066.7776      0             -1056.2708     -9479.6249    
      4000   321.43367     -1066.6961      0             -1056.2674     -19324.311    
      4100   285.05239     -1065.5035      0             -1056.2552     -25198.943    
      4200   301.18371     -1066.0273      0             -1056.2557     -24916.11     
      4300   294.21234     -1065.7563      0             -1056.2108     -18440.119    
      4400   318.4489      -1066.5986      0             -1056.2668     -9157.9613    
      4500   291.02931     -1065.7101      0             -1056.2679     -3546.0669    
      4600   297.16304     -1065.8977      0             -1056.2565     -5829.9094    
      4700   332.7133      -1067.0595      0             -1056.2648     -14549.08     
      4800   284.13543     -1065.4396      0             -1056.221      -21658.295    
      4900   282.40554     -1065.4028      0             -1056.2404     -25069.755    
      5000   324.29198     -1066.808       0             -1056.2866     -22793.527    
      5100   333.34952     -1067.1065      0             -1056.2912     -16326.762    
      5200   298.30606     -1065.9439      0             -1056.2656     -7212.4353    
      5300   312.2209      -1066.4188      0             -1056.289      -4522.3087    
      5400   321.10365     -1066.6902      0             -1056.2722     -8139.536     
      5500   319.97294     -1066.6442      0             -1056.2629     -16077.825    
      5600   321.39568     -1066.6978      0             -1056.2704     -22287.624    
      5700   300.23281     -1066.0159      0             -1056.2751     -23670.525    
      5800   313.10389     -1066.4307      0             -1056.2723     -20678.82     
      5900   301.68981     -1066.0448      0             -1056.2567     -13166.503    
      6000   308.65807     -1066.286       0             -1056.2718     -6931.8937    
      6100   307.08848     -1066.2328      0             -1056.2695     -6686.9981    
      6200   307.64289     -1066.2326      0             -1056.2513     -12436.792    
      6300   290.99217     -1065.6782      0             -1056.2372     -19046.42     
      6400   286.86322     -1065.5522      0             -1056.2451     -21813.695    
      6500   306.47709     -1066.2027      0             -1056.2593     -20698.54     
      6600   316.74574     -1066.5392      0             -1056.2627     -14820.807    
      6700   306.39108     -1066.1995      0             -1056.2589     -8470.6818    
      6800   293.84344     -1065.7882      0             -1056.2546     -6309.1089    
      6900   322.9055      -1066.7669      0             -1056.2905     -9530.461     
      7000   320.72094     -1066.6466      0             -1056.241      -15449.629    
      7100   294.49987     -1065.8132      0             -1056.2583     -20625.516    
      7200   294.55133     -1065.8248      0             -1056.2683     -21420.107    
      7300   305.77373     -1066.1753      0             -1056.2547     -16705.167    
      7400   309.36817     -1066.2957      0             -1056.2585     -11371.367    
      7500   284.09475     -1065.4503      0             -1056.2331     -7624.1       
      7600   303.13166     -1066.0891      0             -1056.2542     -9039.9168    
      7700   327.48569     -1066.9215      0             -1056.2965     -13093.717    
      7800   298.15075     -1065.9344      0             -1056.2611     -16879.837    
      7900   303.94962     -1066.1374      0             -1056.276      -19045.218    
      8000   311.36191     -1066.3759      0             -1056.274      -18298.793    
      8100   311.85009     -1066.3811      0             -1056.2634     -14052.339    
      8200   324.16852     -1066.8253      0             -1056.3079     -11064.919    
      8300   296.92594     -1065.9125      0             -1056.2789     -9966.3148    
      8400   317.39228     -1066.5844      0             -1056.2868     -11688.747    
      8500   311.41239     -1066.3763      0             -1056.2728     -15347.122    
      8600   324.73597     -1066.8082      0             -1056.2723     -18464.026    
      8700   321.87574     -1066.7355      0             -1056.2925     -18266.617    
      8800   315.52236     -1066.5165      0             -1056.2796     -15696.823    
      8900   320.0231      -1066.6664      0             -1056.2835     -11995.169    
      9000   306.51965     -1066.2166      0             -1056.2717     -10552.885    
      9100   323.96047     -1066.7991      0             -1056.2885     -11075.903    
      9200   318.37259     -1066.6169      0             -1056.2875     -13725.09     
      9300   303.48241     -1066.1199      0             -1056.2737     -16334.374    
      9400   317.54955     -1066.6015      0             -1056.2988     -17296.181    
      9500   291.0368      -1065.7233      0             -1056.2809     -15691.717    
      9600   314.30483     -1066.4863      0             -1056.2889     -13129.493    
      9700   308.18054     -1066.2695      0             -1056.2708     -10896.076    
      9800   310.76122     -1066.3535      0             -1056.2711     -10248.912    
      9900   314.53663     -1066.4826      0             -1056.2777     -12798.716    
     10000   295.73846     -1065.8711      0             -1056.2761     -15371.567    
Loop time of 6.86796 on 1 procs for 10000 steps with 252 atoms

Performance: 1258.015 ns/day, 0.019 hours/ns, 1456.036 timesteps/s
99.8% CPU use with 1 MPI tasks x 1 OpenMP threads

MPI task timing breakdown:
Section |  min time  |  avg time  |  max time  |%varavg| %total
---------------------------------------------------------------
Pair    | 6.5838     | 6.5838     | 6.5838     |   0.0 | 95.86
Neigh   | 0          | 0          | 0          |   0.0 |  0.00
Comm    | 0.064894   | 0.064894   | 0.064894   |   0.0 |  0.94
Output  | 0.17878    | 0.17878    | 0.17878    |   0.0 |  2.60
Modify  | 0.021978   | 0.021978   | 0.021978   |   0.0 |  0.32
Other   |            | 0.01853    |            |       |  0.27

Nlocal:            252 ave         252 max         252 min
Histogram: 1 0 0 0 0 0 0 0 0 0
Nghost:           1627 ave        1627 max        1627 min
Histogram: 1 0 0 0 0 0 0 0 0 0
Neighs:          19944 ave       19944 max       19944 min
Histogram: 1 0 0 0 0 0 0 0 0 0

Total # of neighbors = 19944
Ave neighs/atom = 79.142857
Neighbor list builds = 0
Dangerous builds = 0
System init for write_restart ...
Total wall time: 0:00:06
